LAMMPS 2005 data file for BlendAA

   1973 atoms
   1963 bonds
   3906 angles
   5769 dihedrals

   4 atom types
   7 bond types
  15 angle types
  20 dihedral types

     0.000000000    24.769500000 xlo xhi
     0.000000000    24.769500000 ylo yhi
     0.000000000    24.769500000 zlo zhi

Masses

   1  12.011150  # c3
   2  12.011150  # c2
   3  12.011150  # c1
   4   1.007970  # h

Pair Coeffs

   1   0.0660000000   3.5000000000   # c3
   2   0.0660000000   3.5000000000   # c2
   3   0.0660000000   3.5000000000   # c1
   4   0.0300000000   2.5000000000   # h

Bond Coeffs

  1   268.0000     1.5290     # c3-c2 
  2   340.0000     1.0900     # c3-h 
  3   268.0000     1.5290     # c2-c2 
  4   340.0000     1.0900     # c2-h 
  5   268.0000     1.5290     # c2-c1 
  6   268.0000     1.5290     # c3-c1 
  7   340.0000     1.0900     # c1-h 

Angle Coeffs

  1    37.5000   110.7000    # c2-c3-h
  2    33.0000   107.8000    # h-c3-h
  3    58.3500   112.7000    # c3-c2-c2
  4    37.5000   110.7000    # c2-c2-h
  5    37.5000   110.7000    # c3-c2-h
  6    33.0000   107.8000    # h-c2-h
  7    58.3500   112.7000    # c2-c2-c2
  8    58.3500   112.7000    # c2-c2-c1
  9    37.5000   110.7000    # c1-c2-h
 10    58.3500   112.7000    # c2-c1-c2
 11    58.3500   112.7000    # c3-c1-c2
 12    37.5000   110.7000    # c2-c1-h
 13    37.5000   110.7000    # c3-c1-h
 14    58.3500   112.7000    # c1-c2-c1
 15    37.5000   110.7000    # c1-c3-h

Dihedral Coeffs

  1     0.0000     0.0000     0.3000     0.0000     # h-c3-c2-c2
  2     0.0000     0.0000     0.3000     0.0000     # h-c3-c2-h
  3     1.3000    -0.0500     0.2000     0.0000     # c3-c2-c2-c2
  4     0.0000     0.0000     0.3000     0.0000     # c3-c2-c2-h
  5     0.0000     0.0000     0.3000     0.0000     # c2-c2-c2-h
  6     0.0000     0.0000     0.3000     0.0000     # h-c2-c2-h
  7     1.3000    -0.0500     0.2000     0.0000     # c2-c2-c2-c2
  8     1.3000    -0.0500     0.2000     0.0000     # c2-c2-c2-c1
  9     0.0000     0.0000     0.3000     0.0000     # c1-c2-c2-h
 10     1.3000    -0.0500     0.2000     0.0000     # c2-c2-c1-c2
 11     1.3000    -0.0500     0.2000     0.0000     # c2-c2-c1-c3
 12     0.0000     0.0000     0.3000     0.0000     # c2-c2-c1-h
 13     0.0000     0.0000     0.3000     0.0000     # h-c2-c1-c2
 14     0.0000     0.0000     0.3000     0.0000     # h-c2-c1-c3
 15     0.0000     0.0000     0.3000     0.0000     # h-c2-c1-h
 16     1.3000    -0.0500     0.2000     0.0000     # c1-c2-c1-c2
 17     1.3000    -0.0500     0.2000     0.0000     # c1-c2-c1-c3
 18     0.0000     0.0000     0.3000     0.0000     # c1-c2-c1-h
 19     0.0000     0.0000     0.3000     0.0000     # h-c3-c1-c2
 20     0.0000     0.0000     0.3000     0.0000     # h-c3-c1-h

Atoms

1  0  1  -0.3  19.374   21.313   7.36967  #  c3
2  0  2  -0.2  19.7884  19.8344  7.16017  #  c2
3  0  2  -0.2  19.247   19.1155  5.94883  #  c2
4  0  2  -0.2  19.5187  17.6048  5.97682  #  c2
5  0  2  -0.2  18.9982  16.9212  4.69643  #  c2
6  0  2  -0.2  19.8189  17.0803  3.38995  #  c2
7  0  2  -0.2  21.0369  16.2051  3.24517  #  c2
8  0  2  -0.2  21.5118  16.0131  1.76995  #  c2
9  0  3  -0.1  22.6301  14.9908  1.56822  #  c1
10 0  2  -0.2  23.9278  15.4843  2.32633  #  c2
11 0  1  -0.3  22.3287  13.5453  1.96256  #  c3
12 0  4  0.1   18.3489  21.5734  7.03376  #  h
13 0  4  0.1   20.0325  21.8704  6.68985  #  h
14 0  4  0.1   19.3606  21.7188  8.3808   #  h
15 0  4  0.1   20.8336  19.863   6.91466  #  h
16 0  4  0.1   19.5316  19.2743  8.02086  #  h
17 0  4  0.1   18.2048  19.4505  5.8822   #  h
18 0  4  0.1   19.6899  19.6153  5.08253  #  h
19 0  4  0.1   20.5769  17.3316  6.14876  #  h
20 0  4  0.1   19.0109  17.0591  6.73486  #  h
21 0  4  0.1   18.6748  15.9354  4.63236  #  h
22 0  4  0.1   18.0241  17.4237  4.63696  #  h
23 0  4  0.1   19.1447  16.7533  2.54583  #  h
24 0  4  0.1   20.0373  18.1591  3.16072  #  h
25 0  4  0.1   21.8061  16.724   3.78808  #  h
26 0  4  0.1   20.9232  15.1163  3.52729  #  h
27 0  4  0.1   20.7161  15.6877  1.08271  #  h
28 0  4  0.1   21.8735  17.0832  1.39005  #  h
29 0  4  0.1   22.839   15.1959  0.419033 #  h
30 0  4  0.1   23.6339  15.3222  3.34421  #  h
31 0  4  0.1   23.9833  16.5817  2.25795  #  h
32 0  4  0.1   22.4648  13.4079  3.04714  #  h
33 0  4  0.1   22.8052  12.7265  1.53037  #  h
34 0  4  0.1   21.3633  13.2874  1.74912  #  h
35 0  1  -0.3  3.97104  23.2196  2.67654  #  c3
36 0  2  -0.2  3.59893  21.837   3.2038   #  c2
37 0  2  -0.2  2.22832  21.2883  2.82129  #  c2
38 0  2  -0.2  1.96628  19.8934  3.43347  #  c2
39 0  2  -0.2  1.03214  19.1903  2.48268  #  c2
40 0  2  -0.2  0.790265 17.7797  3.0598   #  c2
41 0  2  -0.2  -0.0560119  16.9278  2.09182  #  c2
42 0  2  -0.2  -0.295648   15.4537  2.54754  #  c2
43 0  3  -0.1  25.2407  14.8035  1.89833  #  c1
44 0  2  -0.2  25.2041  14.3361  0.386712 #  c2
45 0  4  0.1   3.09771  23.8451  3.05655  #  h
46 0  4  0.1   3.92608  23.3173  1.64871  #  h
47 0  4  0.1   4.9496   23.5497  3.07479  #  h
48 0  4  0.1   4.4422   21.1962  2.83994  #  h
49 0  4  0.1   3.72953  21.8579  4.24649  #  h
50 0  4  0.1   1.44021  21.9965  2.96933  #  h
51 0  4  0.1   2.47559  21.1432  1.7794   #  h
52 0  4  0.1   2.85292  19.3285  3.59644  #  h
53 0  4  0.1   1.54999  19.829   4.42535  #  h
54 0  4  0.1   0.120602 19.8193  2.30864  #  h
55 0  4  0.1   1.55652  19.1874  1.58393  #  h
56 0  4  0.1   1.74784  17.2607  3.28511  #  h
57 0  4  0.1   0.305338 17.9304  4.01627  #  h
58 0  4  0.1   -1.03019 17.4287  1.91754  #  h
59 0  4  0.1   0.306651 16.8416  1.12616  #  h
60 0  4  0.1   0.579022 14.8163  2.40929  #  h
61 0  4  0.1   -0.551003   15.407   3.67569  #  h
62 0  4  0.1   25.1758  13.7961  2.39636  #  h
63 0  4  0.1   24.8492  15.0613  -0.317502   #  h
64 0  4  0.1   24.5258  13.5052  0.201747 #  h
65 0  1  -0.3  2.82191  12.3824  20.3841  #  c3
66 0  2  -0.2  2.95423  13.6148  21.3868  #  c2
67 0  2  -0.2  2.35105  14.9728  20.8297  #  c2
68 0  2  -0.2  2.61655  15.9141  21.9973  #  c2
69 0  2  -0.2  2.11102  15.5798  23.3631  #  c2
70 0  2  -0.2  0.634492 15.5247  23.3015  #  c2
71 0  2  -0.2  -0.0979378  15.4686  24.6643  #  c2
72 0  2  -0.2  -0.102908   14.0136  25.1093  #  c2
73 0  3  -0.1  -0.200466   13.8927  -0.155834   #  c1
74 0  2  -0.2  0.285207 12.5329  0.420153 #  c2
75 0  4  0.1   3.51518  12.5802  19.5075  #  h
76 0  4  0.1   1.82563  12.2022  20.0455  #  h
77 0  4  0.1   3.24019  11.4821  20.8745  #  h
78 0  4  0.1   2.51314  13.3616  22.3294  #  h
79 0  4  0.1   3.92453  13.942   21.5759  #  h
80 0  4  0.1   2.92578  15.336   19.9118  #  h
81 0  4  0.1   1.29213  14.7718  20.624   #  h
82 0  4  0.1   3.72481  16.1417  22.1776  #  h
83 0  4  0.1   2.17349  16.8625  21.6767  #  h
84 0  4  0.1   2.59811  14.8078  23.8473  #  h
85 0  4  0.1   2.33309  16.5872  23.7912  #  h
86 0  4  0.1   0.322034 16.3718  22.6722  #  h
87 0  4  0.1   0.536992 14.6064  22.7017  #  h
88 0  4  0.1   0.416739 16.09 25.3466  #  h
89 0  4  0.1   25.633   15.867   24.7513  #  h
90 0  4  0.1   -0.961751   13.4351  24.7824  #  h
91 0  4  0.1   0.755783 13.4805  24.6074  #  h
92 0  4  0.1   0.547514 14.4901  0.30924  #  h
93 0  4  0.1   -0.243943   12.273   1.42187  #  h
94 0  4  0.1   1.3051   12.6869  0.747092 #  h
95 0  1  -0.3  24.329   3.34309  0.920733 #  c3
96 0  2  -0.2  24.6442  4.3735   -0.13898 #  c2
97 0  2  -0.2  23.5675  5.44967  -0.312413   #  c2
98 0  2  -0.2  23.4817  6.48632  0.81796  #  c2
99 0  2  -0.2  24.4132  7.71047  0.606102 #  c2
100   0  2  -0.2  24.0027  8.641 -0.647266   #  c2
101   0  2  -0.2  25.2083  9.51102  25.6394  #  c2
102   0  2  -0.2  25.6349  10.5066  0.0401995   #  c2
103   0  3  -0.1  0.161804 11.2636  -0.404093   #  c1
104   0  2  -0.2  1.37667  10.359   -0.20267 #  c2
105   0  4  0.1   25.1127  2.83536  1.38241  #  h
106   0  4  0.1   23.6324  2.59953  0.686115 #  h
107   0  4  0.1   23.853   3.74619  1.7961   #  h
108   0  4  0.1   25.6045  4.73448  -0.067668   #  h
109   0  4  0.1   24.7453  3.88991  25.6597  #  h
110   0  4  0.1   23.792   5.83519  25.4532  #  h
111   0  4  0.1   22.5298  5.00063  -0.48124 #  h
112   0  4  0.1   22.5134  6.8753   0.943608 #  h
113   0  4  0.1   23.8013  6.03715  1.81092  #  h
114   0  4  0.1   24.4119  8.3777   1.508 #  h
115   0  4  0.1   25.4505  7.35858  0.559327 #  h
116   0  4  0.1   23.8845  8.00045  25.2502  #  h
117   0  4  0.1   23.0605  9.21668  -0.528828   #  h
118   0  4  0.1   -0.84663 8.6892   25.3937  #  h
119   0  4  0.1   25.1069  10.0383  24.6775  #  h
120   0  4  0.1   24.8563  11.1198  0.38208  #  h
121   0  4  0.1   -0.743583   10.0272  0.930275 #  h
122   0  4  0.1   0.176628 11.4577  25.347   #  h
123   0  4  0.1   1.15997  9.31457  -0.342284   #  h
124   0  4  0.1   1.76294  10.4132  0.805124 #  h
125   0  1  -0.3  23.5607  10.0019  17.9667  #  c3
126   0  2  -0.2  24.7053  9.21705  18.621   #  c2
127   0  2  -0.2  25.2561  9.67082  20.0287  #  c2
128   0  2  -0.2  -0.412319   8.86971  20.5312  #  c2
129   0  2  -0.2  0.199266 9.58101  21.7814  #  c2
130   0  2  -0.2  1.33826  8.70838  22.4102  #  c2
131   0  2  -0.2  1.80734  9.00582  23.868   #  c2
132   0  2  -0.2  2.16822  10.4955  24.0471  #  c2
133   0  3  -0.1  2.48171  10.7649  25.5141  #  c1
134   0  2  -0.2  3.77416  10.0745  -0.929217   #  c2
135   0  4  0.1   23.687   11.1145  17.8045  #  h
136   0  4  0.1   22.6707  9.94458  18.5106  #  h
137   0  4  0.1   23.3054  9.63846  16.9888  #  h
138   0  4  0.1   24.216   8.16657  18.7193  #  h
139   0  4  0.1   25.4839  9.02738  17.8867  #  h
140   0  4  0.1   25.5717  10.717   20.0978  #  h
141   0  4  0.1   24.4549  9.62587  20.7173  #  h
142   0  4  0.1   -0.858628   7.86861  20.7651  #  h
143   0  4  0.1   0.339436 8.8857   19.7262  #  h
144   0  4  0.1   0.74454  10.441   21.417   #  h
145   0  4  0.1   -0.559982   9.7884   22.541   #  h
146   0  4  0.1   0.95025  7.7237   22.3999  #  h
147   0  4  0.1   2.09844  8.5961   21.7181  #  h
148   0  4  0.1   1.09105  8.6587   24.6198  #  h
149   0  4  0.1   2.61515  8.29963  24.0341  #  h
150   0  4  0.1   2.9444   10.7017  23.3711  #  h
151   0  4  0.1   1.24927  10.967   23.6054  #  h
152   0  4  0.1   2.59473  11.8369  25.5072  #  h
153   0  4  0.1   4.17794  9.5941   24.988   #  h
154   0  4  0.1   3.50443  9.18524  -0.349472   #  h
155   0  1  -0.3  10.4921  15.3479  23.0755  #  c3
156   0  2  -0.2  10.946   13.8909  22.7932  #  c2
157   0  2  -0.2  10.132   12.8848  23.5251  #  c2
158   0  2  -0.2  8.83844  12.9578  22.6298  #  c2
159   0  2  -0.2  7.54052  12.2901  23.1956  #  c2
160   0  2  -0.2  6.57436  13.1201  24.0091  #  c2
161   0  2  -0.2  5.4366   12.4053  24.7438  #  c2
162   0  2  -0.2  5.92114  11.5582  -0.859473   #  c2
163   0  3  -0.1  4.78606  10.9096  -0.0592441  #  c1
164   0  2  -0.2  5.24543  10.1476  1.16189  #  c2
165   0  4  0.1   9.75923  15.3441  23.9284  #  h
166   0  4  0.1   10.043   15.7013  22.0648  #  h
167   0  4  0.1   11.2932  16.003   23.3738  #  h
168   0  4  0.1   11.0396  13.7785  21.628   #  h
169   0  4  0.1   11.9292  13.7735  23.3044  #  h
170   0  4  0.1   10.6026  11.9391  23.5674  #  h
171   0  4  0.1   9.98317  13.035   24.5699  #  h
172   0  4  0.1   8.57411  14.009   22.4799  #  h
173   0  4  0.1   9.00855  12.4459  21.6841  #  h
174   0  4  0.1   6.90207  11.9382  22.3207  #  h
175   0  4  0.1   7.80296  11.415   23.9034  #  h
176   0  4  0.1   7.07238  13.9567  24.6514  #  h
177   0  4  0.1   5.99917  13.8075  23.364   #  h
178   0  4  0.1   4.86716  13.2038  25.0625  #  h
179   0  4  0.1   4.86538  11.8771  23.9879  #  h
180   0  4  0.1   6.59575  10.847   25.4891  #  h
181   0  4  0.1   6.47948  12.1765  -0.194437   #  h
182   0  4  0.1   4.19316  11.7484  0.188922 #  h
183   0  4  0.1   4.59999  9.51559  1.71829  #  h
184   0  4  0.1   5.57174  10.8103  1.96467  #  h
185   0  1  -0.3  12.9086  5.49339  -0.0787497  #  c3
186   0  2  -0.2  13.2384  6.66122  -0.887875   #  c2
187   0  2  -0.2  12.2066  6.93615  24.8478  #  c2
188   0  2  -0.2  10.8843  7.29913  25.3766  #  c2
189   0  2  -0.2  9.74916  7.69657  24.5534  #  c2
190   0  2  -0.2  8.59621  8.40284  25.4195  #  c2
191   0  2  -0.2  7.86961  7.49678  -0.433802   #  c2
192   0  2  -0.2  6.51593  8.15703  0.0991125   #  c2
193   0  3  -0.1  6.63358  9.38414  1.00433  #  c1
194   0  2  -0.2  7.04732  8.7838   2.37334  #  c2
195   0  4  0.1   12.6766  4.64075  -0.685535   #  h
196   0  4  0.1   12.0854  5.75693  0.533006 #  h
197   0  4  0.1   13.6609  5.10171  0.654435 #  h
198   0  4  0.1   13.3823  7.42678  -0.131078   #  h
199   0  4  0.1   14.0904  6.67513  25.3355  #  h
200   0  4  0.1   12.605   7.7422   24.2516  #  h
201   0  4  0.1   12.0698  6.11685  24.0351  #  h
202   0  4  0.1   10.5677  6.34936  -1.01962 #  h
203   0  4  0.1   10.9826  7.89297  -0.498928   #  h
204   0  4  0.1   10.1903  8.43548  23.8345  #  h
205   0  4  0.1   9.33331  6.90967  23.89 #  h
206   0  4  0.1   8.98813  9.10451  -0.766407   #  h
207   0  4  0.1   7.88744  8.75219  24.676   #  h
208   0  4  0.1   8.61356  7.11763  0.265395 #  h
209   0  4  0.1   7.58861  6.68748  25.7708  #  h
210   0  4  0.1   5.92798  8.51469  -0.771565   #  h
211   0  4  0.1   5.81988  7.44032  0.591698 #  h
212   0  4  0.1   7.44071  9.9821   0.7137   #  h
213   0  4  0.1   7.5171   7.81722  2.15841  #  h
214   0  4  0.1   6.0829   8.55661  2.86107  #  h
215   0  1  -0.3  3.50583  14.7921  1.17662  #  c3
216   0  2  -0.2  4.79326  15.2637  1.82272  #  c2
217   0  2  -0.2  4.64646  15.4983  3.28093  #  c2
218   0  2  -0.2  6.07832  15.3743  3.91893  #  c2
219   0  2  -0.2  6.72453  13.981   3.95726  #  c2
220   0  2  -0.2  5.84369  12.8195  4.38821  #  c2
221   0  2  -0.2  6.71833  11.5976  4.55854  #  c2
222   0  2  -0.2  7.69757  11.1677  3.50811  #  c2
223   0  3  -0.1  8.06254  9.6497   3.24091  #  c1
224   0  2  -0.2  9.46554  9.39217  2.61264  #  c2
225   0  4  0.1   2.71398  15.551   1.1962   #  h
226   0  4  0.1   3.19394  13.9447  1.75989  #  h
227   0  4  0.1   3.69579  14.5311  0.0777145   #  h
228   0  4  0.1   5.51305  14.4952  1.62634  #  h
229   0  4  0.1   5.09954  16.1357  1.21641  #  h
230   0  4  0.1   4.43006  16.5872  3.37543  #  h
231   0  4  0.1   3.869 14.8713  3.81245  #  h
232   0  4  0.1   6.78985  15.9315  3.35811  #  h
233   0  4  0.1   5.81632  15.7416  4.91778  #  h
234   0  4  0.1   6.93894  13.8409  2.88494  #  h
235   0  4  0.1   7.6919   14.018   4.54014  #  h
236   0  4  0.1   5.34067  13.0401  5.34744  #  h
237   0  4  0.1   5.0053   12.661   3.66462  #  h
238   0  4  0.1   7.27404  11.6213  5.48323  #  h
239   0  4  0.1   6.01229  10.6862  4.74463  #  h
240   0  4  0.1   7.51345  11.7004  2.57546  #  h
241   0  4  0.1   8.53292  11.8457  3.82883  #  h
242   0  4  0.1   8.03365  9.09823  4.19123  #  h
243   0  4  0.1   9.60136  9.69548  1.5346   #  h
244   0  4  0.1   9.6025   8.2644   2.54852  #  h
245   0  1  -0.3  15.6565  9.94195  23.4986  #  c3
246   0  2  -0.2  15.1245  11.4447  23.3656  #  c2
247   0  2  -0.2  14.1522  11.9381  24.531   #  c2
248   0  2  -0.2  13.1237  10.8566  25.0188  #  c2
249   0  2  -0.2  12.3014  11.2407  -0.449576   #  c2
250   0  2  -0.2  13.0766  10.7846  0.761448 #  c2
251   0  2  -0.2  12.426   9.8368   1.73984  #  c2
252   0  2  -0.2  11.5319  10.5064  2.79032  #  c2
253   0  3  -0.1  10.5893  9.75609  3.54446  #  c1
254   0  2  -0.2  11.2894  8.48669  4.06925  #  c2
255   0  4  0.1   16.4355  9.79156  22.7159  #  h
256   0  4  0.1   14.871   9.22741  23.2334  #  h
257   0  4  0.1   15.9937  9.74617  24.4805  #  h
258   0  4  0.1   15.9832  11.9536  23.3364  #  h
259   0  4  0.1   14.6726  11.608   22.4112  #  h
260   0  4  0.1   14.7386  12.0541  25.4573  #  h
261   0  4  0.1   13.7196  12.9624  24.2385  #  h
262   0  4  0.1   12.3982  10.6422  24.1635  #  h
263   0  4  0.1   13.6181  9.85872  25.2173  #  h
264   0  4  0.1   11.8579  12.2914  -0.319589   #  h
265   0  4  0.1   11.4992  10.5799  -0.453863   #  h
266   0  4  0.1   14.1076  10.3186  0.575601 #  h
267   0  4  0.1   13.2295  11.659   1.39856  #  h
268   0  4  0.1   11.7503  9.14401  1.23957  #  h
269   0  4  0.1   13.2203  9.18717  2.25837  #  h
270   0  4  0.1   10.9271  11.3427  2.20991  #  h
271   0  4  0.1   12.1269  11.1001  3.44972  #  h
272   0  4  0.1   10.1427  10.3814  4.39875  #  h
273   0  4  0.1   11.5796  7.78173  3.26022  #  h
274   0  4  0.1   10.4411  7.87832  4.50364  #  h
275   0  1  -0.3  16.376   2.084 3.31992  #  c3
276   0  2  -0.2  15.3033  3.06884  2.92171  #  c2
277   0  2  -0.2  14.1109  3.01002  3.95576  #  c2
278   0  2  -0.2  13.6728  4.30748  4.58899  #  c2
279   0  2  -0.2  12.4577  4.13456  5.50386  #  c2
280   0  2  -0.2  11.6897  5.40019  5.56255  #  c2
281   0  2  -0.2  12.4018  6.47674  6.30625  #  c2
282   0  2  -0.2  13.2545  7.389 5.50522  #  c2
283   0  3  -0.1  12.4762  8.68538  5.0501   #  c1
284   0  2  -0.2  12.1153  9.55639  6.31599  #  c2
285   0  4  0.1   17.2353  2.39164  2.76972  #  h
286   0  4  0.1   16.2122  1.0853   2.92279  #  h
287   0  4  0.1   16.5711  2.02829  4.40903  #  h
288   0  4  0.1   15.8142  4.0835   2.92558  #  h
289   0  4  0.1   14.9427  3.01291  1.92677  #  h
290   0  4  0.1   13.2604  2.67591  3.35745  #  h
291   0  4  0.1   14.1349  2.21307  4.59842  #  h
292   0  4  0.1   14.5157  4.70044  5.12854  #  h
293   0  4  0.1   13.5535  5.06775  3.82746  #  h
294   0  4  0.1   11.8415  3.27043  5.16291  #  h
295   0  4  0.1   12.9439  3.95645  6.4964   #  h
296   0  4  0.1   11.4262  5.76995  4.59461  #  h
297   0  4  0.1   10.8071  5.13056  6.13048  #  h
298   0  4  0.1   11.6866  6.98998  6.83076  #  h
299   0  4  0.1   12.9916  6.00999  7.12442  #  h
300   0  4  0.1   14.162   7.67097  6.07648  #  h
301   0  4  0.1   13.5122  6.87746  4.57495  #  h
302   0  4  0.1   13.1732  9.22903  4.46771  #  h
303   0  4  0.1   11.2361  9.19341  6.92436  #  h
304   0  4  0.1   11.7883  10.5717  5.96308  #  h
305   0  1  -0.3  17.6356  14.8353  1.00032  #  c3
306   0  2  -0.2  17.7148  13.4569  1.64365  #  c2
307   0  2  -0.2  16.3103  12.8725  1.91716  #  c2
308   0  2  -0.2  16.1872  11.7772  3.02372  #  c2
309   0  2  -0.2  16.5585  12.2109  4.40041  #  c2
310   0  2  -0.2  15.3676  12.8032  5.16223  #  c2
311   0  2  -0.2  14.1638  11.7984  5.53076  #  c2
312   0  2  -0.2  14.4997  10.7341  6.53334  #  c2
313   0  3  -0.1  13.2841  9.98967  7.2377   #  c1
314   0  2  -0.2  13.5597  9.0571   8.34906  #  c2
315   0  4  0.1   17.0265  14.8907  0.0782961   #  h
316   0  4  0.1   18.6395  15.2457  0.80025  #  h
317   0  4  0.1   17.0547  15.4787  1.75517  #  h
318   0  4  0.1   18.2388  12.599   1.11807  #  h
319   0  4  0.1   18.3701  13.4623  2.56389  #  h
320   0  4  0.1   15.6317  13.6557  2.25524  #  h
321   0  4  0.1   15.8931  12.594   0.946869 #  h
322   0  4  0.1   15.0966  11.4756  2.99256  #  h
323   0  4  0.1   16.6762  10.9224  2.75684  #  h
324   0  4  0.1   16.951   11.3335  4.86264  #  h
325   0  4  0.1   17.2841  13.0043  4.38192  #  h
326   0  4  0.1   15.7659  13.3965  5.97369  #  h
327   0  4  0.1   14.9  13.5106  4.49135  #  h
328   0  4  0.1   13.4122  12.4142  6.02315  #  h
329   0  4  0.1   13.813   11.4375  4.59405  #  h
330   0  4  0.1   15.2484  10.0292  6.16259  #  h
331   0  4  0.1   14.9359  11.275   7.31201  #  h
332   0  4  0.1   12.9509  10.9288  7.78472  #  h
333   0  4  0.1   14.3205  8.48334  7.96264  #  h
334   0  4  0.1   12.8098  8.22828  8.40628  #  h
335   0  1  -0.3  19.9979  4.16836  12.7251  #  c3
336   0  2  -0.2  20.3985  5.6458   12.6055  #  c2
337   0  2  -0.2  19.6113  6.42363  11.5728  #  c2
338   0  2  -0.2  18.1214  6.30832  11.9267  #  c2
339   0  2  -0.2  17.1445  6.90603  10.9095  #  c2
340   0  2  -0.2  17.4584  8.37746  10.7103  #  c2
341   0  2  -0.2  16.4482  9.00783  9.78295  #  c2
342   0  2  -0.2  15.0979  9.13831  10.4686  #  c2
343   0  3  -0.1  13.8879  9.75285  9.65487  #  c1
344   0  2  -0.2  12.654   10.1232  10.5056  #  c2
345   0  4  0.1   20.7038  3.60442  13.3097  #  h
346   0  4  0.1   19.8556  3.76726  11.8199  #  h
347   0  4  0.1   19.1124  4.04317  13.3021  #  h
348   0  4  0.1   20.2518  6.19127  13.5127  #  h
349   0  4  0.1   21.4456  5.74431  12.2132  #  h
350   0  4  0.1   19.8864  7.48828  11.6184  #  h
351   0  4  0.1   19.8835  5.9772   10.5974  #  h
352   0  4  0.1   17.8271  5.29788  11.8861  #  h
353   0  4  0.1   17.8697  6.65886  12.9162  #  h
354   0  4  0.1   17.0351  6.4311   9.95537  #  h
355   0  4  0.1   16.2131  6.66485  11.3843  #  h
356   0  4  0.1   17.3983  8.94202  11.667   #  h
357   0  4  0.1   18.4255  8.39317  10.1878  #  h
358   0  4  0.1   16.7173  9.94099  9.43807  #  h
359   0  4  0.1   16.3561  8.35008  8.88483  #  h
360   0  4  0.1   14.8587  8.19375  10.7569  #  h
361   0  4  0.1   15.2208  9.7611   11.3267  #  h
362   0  4  0.1   14.3929  10.6117  9.37162  #  h
363   0  4  0.1   11.9249  10.6616  9.84982  #  h
364   0  4  0.1   12.8722  10.7724  11.3127  #  h
365   0  1  -0.3  7.59687  1.5921   7.14663  #  c3
366   0  2  -0.2  7.65767  3.04577  7.46551  #  c2
367   0  2  -0.2  7.22938  3.25667  8.90186  #  c2
368   0  2  -0.2  7.38754  4.72512  9.281 #  c2
369   0  2  -0.2  8.87311  5.03498  9.66499  #  c2
370   0  2  -0.2  8.98817  6.49411  9.82428  #  c2
371   0  2  -0.2  10.4571  6.95501  10.0693  #  c2
372   0  2  -0.2  10.5634  8.45272  10.3059  #  c2
373   0  3  -0.1  11.8609  8.83414  11.0913  #  c1
374   0  2  -0.2  11.4779  8.86269  12.5636  #  c2
375   0  4  0.1   8.33356  1.0826   7.69269  #  h
376   0  4  0.1   7.79698  1.48473  6.04325  #  h
377   0  4  0.1   6.62335  1.1533   7.37461  #  h
378   0  4  0.1   8.64683  3.42026  7.28545  #  h
379   0  4  0.1   7.01301  3.6913   6.84458  #  h
380   0  4  0.1   6.24132  2.83518  8.98058  #  h
381   0  4  0.1   7.95251  2.75132  9.55365  #  h
382   0  4  0.1   7.09148  5.26643  8.40827  #  h
383   0  4  0.1   6.72323  4.92811  10.1163  #  h
384   0  4  0.1   9.19708  4.48926  10.5081  #  h
385   0  4  0.1   9.49255  4.85121  8.77363  #  h
386   0  4  0.1   8.52289  7.0741   8.99633  #  h
387   0  4  0.1   8.40065  6.80417  10.6925  #  h
388   0  4  0.1   10.8432  6.39817  10.9455  #  h
389   0  4  0.1   11.1822  6.74132  9.27529  #  h
390   0  4  0.1   10.6673  8.93131  9.28848  #  h
391   0  4  0.1   9.69613  9.04875  10.6292  #  h
392   0  4  0.1   12.4738  7.94298  10.857   #  h
393   0  4  0.1   11.0884  7.8837   12.8448  #  h
394   0  4  0.1   10.5555  9.47995  12.6872  #  h
395   0  1  -0.3  18.3441  3.42833  16.4225  #  c3
396   0  2  -0.2  17.3985  4.50538  16.9866  #  c2
397   0  2  -0.2  15.8773  4.16837  16.8005  #  c2
398   0  2  -0.2  15.3855  3.74681  15.4579  #  c2
399   0  2  -0.2  14.0826  4.43901  14.8969  #  c2
400   0  2  -0.2  14.3953  5.79235  14.4353  #  c2
401   0  2  -0.2  13.2225  6.65106  14.1471  #  c2
402   0  2  -0.2  13.687   7.97255  13.6039  #  c2
403   0  3  -0.1  12.6698  9.09899  13.565   #  c1
404   0  2  -0.2  12.1973  9.62922  14.9572  #  c2
405   0  4  0.1   18.0639  3.12144  15.4438  #  h
406   0  4  0.1   18.1596  2.48454  17.0533  #  h
407   0  4  0.1   19.4341  3.70194  16.363   #  h
408   0  4  0.1   17.6667  4.56828  18.0174  #  h
409   0  4  0.1   17.7403  5.43287  16.4602  #  h
410   0  4  0.1   15.6153  3.32359  17.3951  #  h
411   0  4  0.1   15.2625  5.04292  17.0444  #  h
412   0  4  0.1   16.0377  3.95808  14.6757  #  h
413   0  4  0.1   15.3642  2.63619  15.4759  #  h
414   0  4  0.1   13.7729  3.77488  14.1401  #  h
415   0  4  0.1   13.1946  4.30514  15.524   #  h
416   0  4  0.1   14.9256  6.3294   15.2529  #  h
417   0  4  0.1   15.0554  5.64422  13.5695  #  h
418   0  4  0.1   12.521   6.23005  13.4883  #  h
419   0  4  0.1   12.7122  6.7158   15.1805  #  h
420   0  4  0.1   14.6141  8.39674  14.0046  #  h
421   0  4  0.1   13.8248  7.61884  12.5358  #  h
422   0  4  0.1   13.4006  9.90222  13.2097  #  h
423   0  4  0.1   12.8437  9.11115  15.6283  #  h
424   0  4  0.1   11.1518  9.28991  15.1232  #  h
425   0  1  -0.3  5.91209  9.3647   13.3977  #  c3
426   0  2  -0.2  6.93682  9.60668  14.5069  #  c2
427   0  2  -0.2  6.93268  11.0686  15.1407  #  c2
428   0  2  -0.2  7.29812  12.1684  14.1035  #  c2
429   0  2  -0.2  8.13921  13.3603  14.5848  #  c2
430   0  2  -0.2  9.58011  12.925   14.9672  #  c2
431   0  2  -0.2  10.2667  12.2452  13.8119  #  c2
432   0  2  -0.2  11.8393  12.102   14.127   #  c2
433   0  3  -0.1  12.4318  11.194   15.208   #  c1
434   0  2  -0.2  13.9351  11.4811  15.3968  #  c2
435   0  4  0.1   4.9155   9.68146  13.7217  #  h
436   0  4  0.1   6.02207  8.41183  12.866   #  h
437   0  4  0.1   6.09518  10.1219  12.6396  #  h
438   0  4  0.1   6.7386   8.88947  15.2968  #  h
439   0  4  0.1   7.91197  9.34935  14.1116  #  h
440   0  4  0.1   5.93271  11.0953  15.4306  #  h
441   0  4  0.1   7.65511  10.9924  15.9828  #  h
442   0  4  0.1   7.65853  11.7341  13.2314  #  h
443   0  4  0.1   6.35702  12.5853  13.7121  #  h
444   0  4  0.1   8.14317  14.0295  13.7457  #  h
445   0  4  0.1   7.53044  13.9136  15.3854  #  h
446   0  4  0.1   10.1453  13.7267  15.2925  #  h
447   0  4  0.1   9.6022   12.1271  15.7651  #  h
448   0  4  0.1   9.86686  11.2266  13.6774  #  h
449   0  4  0.1   10.0636  12.6468  12.7507  #  h
450   0  4  0.1   12.3256  11.7981  13.1787  #  h
451   0  4  0.1   12.1755  13.0906  14.4535  #  h
452   0  4  0.1   11.9124  11.3046  16.1302  #  h
453   0  4  0.1   14.4416  11.9506  14.5785  #  h
454   0  4  0.1   14.4061  10.5436  15.3147  #  h
455   0  1  -0.3  11.3147  4.87095  19.9051  #  c3
456   0  2  -0.2  11.4569  6.27983  19.3106  #  c2
457   0  2  -0.2  12.156   7.20942  20.2274  #  c2
458   0  2  -0.2  12.3148  8.43144  19.5402  #  c2
459   0  2  -0.2  13.0392  9.44019  20.4761  #  c2
460   0  2  -0.2  12.7982  10.9335  20.0901  #  c2
461   0  2  -0.2  12.7342  11.3076  18.6539  #  c2
462   0  2  -0.2  14.2017  11.4572  18.0694  #  c2
463   0  3  -0.1  14.2962  12.2401  16.7058  #  c1
464   0  2  -0.2  13.5427  13.6151  16.7768  #  c2
465   0  4  0.1   12.3039  4.52228  20.0885  #  h
466   0  4  0.1   10.8156  4.24904  19.1292  #  h
467   0  4  0.1   10.8546  4.84568  20.9248  #  h
468   0  4  0.1   11.9796  6.26181  18.3457  #  h
469   0  4  0.1   10.3408  6.51538  19.1494  #  h
470   0  4  0.1   11.7206  7.32283  21.2145  #  h
471   0  4  0.1   13.1541  6.84892  20.4815  #  h
472   0  4  0.1   12.9574  8.21611  18.6305  #  h
473   0  4  0.1   11.3132  8.80328  19.2227  #  h
474   0  4  0.1   12.617   9.32017  21.5016  #  h
475   0  4  0.1   14.1129  9.2927   20.6661  #  h
476   0  4  0.1   11.8007  11.2168  20.4167  #  h
477   0  4  0.1   13.3122  11.5483  20.6544  #  h
478   0  4  0.1   12.2063  10.4914  18.1181  #  h
479   0  4  0.1   12.1794  12.2206  18.6051  #  h
480   0  4  0.1   14.6199  12.0351  18.8918  #  h
481   0  4  0.1   14.7077  10.5353  17.898   #  h
482   0  4  0.1   15.3633  12.2599  16.6063  #  h
483   0  4  0.1   12.4724  13.4411  16.7273  #  h
484   0  4  0.1   13.83 14.0762  15.8614  #  h
485   0  1  -0.3  15.1444  15.8794  24.1351  #  c3
486   0  2  -0.2  15.4465  15.4402  22.6606  #  c2
487   0  2  -0.2  15.777   16.7216  21.7703  #  c2
488   0  2  -0.2  14.7125  17.7664  21.6756  #  c2
489   0  2  -0.2  13.2582  17.1989  21.5163  #  c2
490   0  2  -0.2  13.0435  16.3537  20.2317  #  c2
491   0  2  -0.2  13.3836  16.9407  18.9507  #  c2
492   0  2  -0.2  13.3427  15.9381  17.7773  #  c2
493   0  3  -0.1  14.0579  14.6088  17.8409  #  c1
494   0  2  -0.2  15.5414  14.828   17.9992  #  c2
495   0  4  0.1   16.0741  16.4345  24.4725  #  h
496   0  4  0.1   15.0554  15.0594  24.9395  #  h
497   0  4  0.1   14.2948  16.5466  24.0917  #  h
498   0  4  0.1   16.3378  14.7887  22.6565  #  h
499   0  4  0.1   14.4862  15.0101  22.31 #  h
500   0  4  0.1   16.6821  17.1578  21.9498  #  h
501   0  4  0.1   16.0158  16.3692  20.796   #  h
502   0  4  0.1   14.8018  18.3948  22.5517  #  h
503   0  4  0.1   14.8239  18.5004  20.8324  #  h
504   0  4  0.1   12.9303  16.5612  22.3015  #  h
505   0  4  0.1   12.608   18.086   21.5266  #  h
506   0  4  0.1   13.6862  15.3989  20.3206  #  h
507   0  4  0.1   12.0884  15.9646  20.1018  #  h
508   0  4  0.1   12.5791  17.5765  18.6626  #  h
509   0  4  0.1   14.2644  17.5273  18.9013  #  h
510   0  4  0.1   12.3148  15.7212  17.5202  #  h
511   0  4  0.1   13.8127  16.3669  16.924   #  h
512   0  4  0.1   13.6764  14.1085  18.7818  #  h
513   0  4  0.1   16.0051  13.851   18.385   #  h
514   0  4  0.1   15.6563  15.5161  18.8751  #  h
515   0  1  -0.3  25.3153  13.6277  18.663   #  c3
516   0  2  -0.2  24.0889  13.517   19.6067  #  c2
517   0  2  -0.2  22.9205  14.3015  18.9593  #  c2
518   0  2  -0.2  22.2248  13.548   17.8989  #  c2
519   0  2  -0.2  20.9407  14.1076  17.3472  #  c2
520   0  2  -0.2  19.8517  14.2456  18.5453  #  c2
521   0  2  -0.2  18.705   15.1928  18.0396  #  c2
522   0  2  -0.2  17.9237  14.6937  16.8665  #  c2
523   0  3  -0.1  16.4741  15.2278  16.7092  #  c1
524   0  2  -0.2  16.4688  16.768   16.4136  #  c2
525   0  4  0.1   25.4551  14.6735  18.3913  #  h
526   0  4  0.1   24.9926  13.0975  17.6966  #  h
527   0  4  0.1   -0.550888   13.2005  18.9959  #  h
528   0  4  0.1   23.8247  12.4387  19.7731  #  h
529   0  4  0.1   24.3717  13.8575  20.6006  #  h
530   0  4  0.1   22.1926  14.6105  19.7963  #  h
531   0  4  0.1   23.3328  15.2487  18.6008  #  h
532   0  4  0.1   22.9232  13.4799  17.1629  #  h
533   0  4  0.1   22.0223  12.5773  18.4452  #  h
534   0  4  0.1   20.9951  15.1402  17.0037  #  h
535   0  4  0.1   20.5826  13.4552  16.5392  #  h
536   0  4  0.1   19.3549  13.1573  18.6868  #  h
537   0  4  0.1   20.2952  14.4106  19.5  #  h
538   0  4  0.1   18.0791  15.1716  18.8711  #  h
539   0  4  0.1   18.9047  16.2281  17.9698  #  h
540   0  4  0.1   18.5445  14.8267  15.9827  #  h
541   0  4  0.1   17.8866  13.5576  16.9796  #  h
542   0  4  0.1   16.1004  14.7008  15.8073  #  h
543   0  4  0.1   15.5215  17.1178  16.7001  #  h
544   0  4  0.1   17.1025  17.341   17.1364  #  h