
# Potential information
units           	real
dimension       	3
boundary        	p p p
atom_style      	full

pair_style      	lj/cut/coul/cut 12.0 12.0
bond_style      	harmonic
angle_style     	harmonic
dihedral_style 		opls
improper_style     	cvff
pair_modify 		mix geometric tail yes
special_bonds   	lj/coul 0.0 0.0 0.0

# Read lammps data file consist of molecular topology and forcefield info
read_data       	${fluid}.txt
read_data       	BlendAA.txt
  orthogonal box = (0.0000000 0.0000000 0.0000000) to (24.769500 24.769500 24.769500)
  4 by 4 by 7 MPI processor grid
  reading atoms ...
  1973 atoms
  scanning bonds ...
  4 = max bonds/atom
  scanning angles ...
  6 = max angles/atom
  scanning dihedrals ...
  18 = max dihedrals/atom
  reading bonds ...
  1963 bonds
  reading angles ...
  3906 angles
  reading dihedrals ...
  5769 dihedrals
     4 = max # of 1-2 neighbors
     9 = max # of 1-3 neighbors
    18 = max # of 1-4 neighbors
    22 = max # of special neighbors
  special bonds CPU = 0.011 seconds
  read_data CPU = 0.121 seconds
neighbor        	2.0 bin
neigh_modify 		delay 0 every 1 check yes page 500000 one 50000

# Define variables
variable        	eqmT equal $T+273.15
variable        	eqmT equal 100+273.15
variable        	eqmP equal 1.0				# Equilibrium pressure [atm]
variable        	nfreq   equal 1000	 		# Calculate averages every this many timesteps
variable        	nrepeat equal 100  			# Number of times to use input values for calculating averages
variable        	nevery  equal 10    		# Use input values every this many timesteps
variable 			rho equal density

# Minimize system at target temperature using the default conjugate gradient method
velocity        	all create ${eqmT} 482648
velocity        	all create 373.15 482648
fix             	min all nve
thermo          	10
thermo_style 		custom step temp press density pxx pyy pzz pxy pxz pyz pe ke etotal evdwl ecoul epair ebond eangle edihed eimp emol etail enthalpy vol
dump            	1 all custom 10 min_w_${fluid}.lammpstrj id mol type x y z
dump            	1 all custom 10 min_w_BlendAA.lammpstrj id mol type x y z
dump            	2 all custom 10 min_u_${fluid}.lammpstrj id mol type xu yu zu
dump            	2 all custom 10 min_u_BlendAA.lammpstrj id mol type xu yu zu
dump_modify     	1 sort id
dump_modify     	2 sort id
minimize        	1.0e-16 1.06e-6 100000 500000
Neighbor list info ...
  update every 1 steps, delay 0 steps, check yes
  max neighbors/atom: 50000, page size: 500000
  master list distance cutoff = 14
  ghost atom cutoff = 14
  binsize = 7, bins = 4 4 4
  1 neighbor lists, perpetual/occasional/extra = 1 0 0
  (1) pair lj/cut/coul/cut, perpetual
      attributes: half, newton on
      pair build: half/bin/newton
      stencil: half/bin/3d/newton
      bin: standard
WARNING: Bond/angle/dihedral extent > half of periodic box length (../domain.cpp:934)
Per MPI rank memory allocation (min/avg/max) = 20.18 | 20.3 | 20.67 Mbytes
Step Temp Press Density Pxx Pyy Pzz Pxy Pxz Pyz PotEng KinEng TotEng E_vdwl E_coul E_pair E_bond E_angle E_dihed E_impro E_mol E_tail Enthalpy Volume 
       0       373.15   -1230148.3    1.0000083   -1489527.2   -1327781.7   -873135.96   -128237.05   -217664.16   -102059.29    404069.25    2193.4344    406262.69    10017.619    721.70703    10739.326    357994.16     34654.84    680.92264            0    393329.93   -36.851475    133625.52    15196.785 
      10       373.15   -714335.58    1.0000083   -879789.14   -769830.23   -493387.36   -87791.696   -157771.11   -55433.514    262506.43    2193.4344    264699.87    8827.7308    713.48154    9541.2124    224616.26    27681.375    667.58087            0    252965.22   -36.851475    106382.01    15196.785 
      20       373.15   -269890.07    1.0000083   -363478.65   -305728.67    -140462.9   -53914.366   -113390.37   -16566.186    162149.87    2193.4344     164343.3    10982.326    748.11766    11730.443    129935.93    19830.337    653.15692            0    150419.43   -36.851475     104527.7    15196.785 
      30       373.15    96657.271    1.0000083    43736.287    77493.111    168742.41   -15552.722   -83699.757    10834.678    89919.871    2193.4344    92113.306    14717.125    715.44345    15432.568    59895.195    13946.509    645.59933            0    74487.303   -36.851475    113535.41    15196.785 
      40       373.15    221330.46    1.0000083     189620.8    214883.73    259486.84    -467.7185   -60089.191    7359.9158    56270.544    2193.4344    58463.979    14480.765    733.31652    15214.081    27858.244    12557.633    640.58543            0    41056.463   -36.851475    107517.34    15196.785 
      50       373.15     228010.5    1.0000083    209768.44    224218.88    250044.19     2846.596   -48043.083   -2648.7027     42387.78    2193.4344    44581.215    12001.516    737.68843    12739.205    16326.741    12679.427    642.40688            0    29648.575   -36.851475    95115.074    15196.785 
      60       373.15    220106.81    1.0000083    206625.86    216860.56    236834.01    6665.6228   -38067.586   -8952.9913    33641.381    2193.4344    35834.816    9788.5147    727.68695    10516.202    10101.922    12377.853    645.40504            0     23125.18   -36.851475    84616.983    15196.785 
      70       373.15    208481.65    1.0000083    198194.49    204606.57    222643.88    9662.1849   -28025.075    -11956.35    27467.737    2193.4344    29661.171    8197.6187    707.13512    8904.7538    6426.3866    11492.363    644.23343            0    18562.983   -36.851475    75866.858    15196.785 
      80       373.15    189474.45    1.0000083    181140.12    187550.76    199732.45    12773.601   -22499.608   -12467.851    22099.019    2193.4344    24292.454    6588.9376    870.19692    7459.1345    3814.7751    10175.605    649.50489            0    14639.885   -36.851475    66285.584    15196.785 
      90       373.15    173007.09    1.0000083    166448.69    172923.34    179649.25    13811.768   -19472.212   -11679.472    18592.307    2193.4344    20785.741    5526.2467    915.54019    6441.7869    2685.5181    8809.7801     655.2219            0     12150.52   -36.851475     59129.22    15196.785 
     100       373.15    155625.65    1.0000083    149216.33    156152.68    161507.95    12782.853   -17653.981   -9583.4782    16118.389    2193.4344    18311.824     4687.262    901.95584    5589.2178    2195.3183     7671.839    662.01429            0    10529.172   -36.851475    52803.063    15196.785 
     110       373.15    134836.65    1.0000083    128326.27    135771.86    140411.83    10138.022   -15556.278   -5678.6424    13815.136    2193.4344     16008.57    3810.6996    944.67669    4755.3763     1849.455    6537.2248    673.07952            0    9059.7593   -36.851475    45892.353    15196.785 
     120       373.15    119835.26    1.0000083    114004.96    121912.21    123588.61    9171.6941    -13725.35   -4409.4432    12160.351    2193.4344    14353.785    3201.9568    916.33755    4118.2944    1581.1331    5775.5182    685.40511            0    8042.0564   -36.851475    40912.816    15196.785 
     130       373.15    107823.93    1.0000083    102742.19    109917.29     110812.3    9636.5824   -12646.076   -4570.0658    10964.095    2193.4344    13157.529    2790.3265    846.99477    3637.3213    1472.7646     5155.708    698.30085            0    7326.7735   -36.851475    37054.495    15196.785 
     140       373.15    95171.159    1.0000083     90629.01    96700.047     98184.42    9099.4453   -10900.241    -3614.146    9859.6412    2193.4344    12053.076    2364.8473    880.47295    3245.3203    1276.6119    4619.0454    718.66362            0    6614.3209   -36.851475    33145.814    15196.785 
     150       373.15    89089.294    1.0000083    85243.261    89764.629    92259.992    8190.4937    -9530.103    -3150.214    9285.9668    2193.4344    11479.401    2155.0178    955.42928    3110.4471    1193.0636    4255.7506    726.70551            0    6175.5197   -36.851475    31224.219    15196.785 
     160       373.15    79382.645    1.0000083    75623.075    78474.942    84049.918     8533.111   -9002.0716    -1450.849    8488.5872    2193.4344    10682.022    1834.5755    887.17457      2721.75    1128.0827    3897.2727    741.48181            0    5766.8371   -36.851475    28275.559    15196.785 
     170       373.15    72398.619    1.0000083    68609.078    72117.821    76468.959    7828.9113   -9130.1746    -83.54194    7915.8695    2193.4344    10109.304    1593.3175    922.63234    2515.9498     1030.514    3619.4513    749.95446            0    5399.9197   -36.851475    26154.975    15196.785 
     174       373.15    71410.974    1.0000083    67876.665    71036.652    75319.605    8131.6423   -9355.3575    334.22115    7852.9151    2193.4344     10046.35    1535.0888    942.72335    2477.8122    1024.0186    3599.8503    751.23401            0    5375.1029   -36.851475     25873.13    15196.785 
Loop time of 0.247637 on 112 procs for 174 steps with 1973 atoms

99.3% CPU use with 112 MPI tasks x no OpenMP threads

Minimization stats:
  Stopping criterion = linesearch alpha is zero
  Energy initial, next-to-last, final = 
       404069.25303805   7852.91507331551   7852.91507331551
  Force two-norm initial, final = 38936.04541021675 186.24913738209978
  Force max component initial, final = 9018.375624831226 23.19582172024336
  Final line search alpha, max atom move = 2.509402840541263e-13 5.820766091346742e-12
  Iterations, force evaluations = 174 272

MPI task timing breakdown:
Section |  min time  |  avg time  |  max time  |%varavg| %total
---------------------------------------------------------------
Pair    | 0.0076382  | 0.069749   | 0.16507    |  11.5 | 28.17
Bond    | 5.2697e-05 | 0.003526   | 0.0080821  |   2.7 |  1.42
Neigh   | 0.0097184  | 0.0099376  | 0.010169   |   0.1 |  4.01
Comm    | 0.033968   | 0.1318     | 0.19744    |   8.7 | 53.22
Output  | 0.019366   | 0.019374   | 0.019467   |   0.0 |  7.82
Modify  | 0          | 0          | 0          |   0.0 |  0.00
Other   |            | 0.01325    |            |       |  5.35

Nlocal:        17.6161 ave          28 max           2 min
Histogram: 3 3 1 10 13 23 18 25 9 7
Nghost:        4766.66 ave        5225 max        4286 min
Histogram: 5 4 14 11 21 18 15 10 9 5
Neighs:        13113.0 ave       25986 max        1095 min
Histogram: 5 2 9 22 21 23 19 6 2 3

Total # of neighbors = 1468656
Ave neighs/atom = 744.37709
Ave special neighs/atom = 11.797263
Neighbor list builds = 13
Dangerous builds = 0
undump          	1
undump          	2
write_restart   	Min_${fluid}.restart
write_restart   	Min_BlendAA.restart

unfix           	min
reset_timestep  	0
neigh_modify 		delay 0 every 1 check yes page 500000 one 50000

# NVT at high temperature
fix             	nvt1000K all nvt temp 1000.0 1000.0 100.0
thermo				${nfreq}
thermo				1000
thermo_style 		custom step temp press density pxx pyy pzz pxy pxz pyz pe ke etotal evdwl ecoul epair ebond eangle edihed eimp emol etail enthalpy vol
fix 				thermo_print all print ${nfreq} "$(step) $(temp) $(press) $(density) $(pxx) $(pyy) $(pzz) $(pxy) $(pxz) $(pyz) $(pe) $(ke) $(etotal) $(evdwl) $(ecoul) $(epair) $(ebond) $(eangle) $(edihed) $(eimp) $(emol) $(etail) $(enthalpy) $(vol)" 					append thermoNVT1000K_${fluid}.out screen no title "# step temp press density pxx pyy pzz pxy pxz pyz pe ke etotal evdwl ecoul epair ebond eangle edihed eimp emol etail enthalpy vol"
fix 				thermo_print all print 1000 "$(step) $(temp) $(press) $(density) $(pxx) $(pyy) $(pzz) $(pxy) $(pxz) $(pyz) $(pe) $(ke) $(etotal) $(evdwl) $(ecoul) $(epair) $(ebond) $(eangle) $(edihed) $(eimp) $(emol) $(etail) $(enthalpy) $(vol)" 					append thermoNVT1000K_${fluid}.out screen no title "# step temp press density pxx pyy pzz pxy pxz pyz pe ke etotal evdwl ecoul epair ebond eangle edihed eimp emol etail enthalpy vol"
fix 				thermo_print all print 1000 "$(step) $(temp) $(press) $(density) $(pxx) $(pyy) $(pzz) $(pxy) $(pxz) $(pyz) $(pe) $(ke) $(etotal) $(evdwl) $(ecoul) $(epair) $(ebond) $(eangle) $(edihed) $(eimp) $(emol) $(etail) $(enthalpy) $(vol)" 					append thermoNVT1000K_BlendAA.out screen no title "# step temp press density pxx pyy pzz pxy pxz pyz pe ke etotal evdwl ecoul epair ebond eangle edihed eimp emol etail enthalpy vol"
dump            	1 all custom ${nfreq} NVT1000K_u_${fluid}.lammpstrj id mol type xu yu zu
dump            	1 all custom 1000 NVT1000K_u_${fluid}.lammpstrj id mol type xu yu zu
dump            	1 all custom 1000 NVT1000K_u_BlendAA.lammpstrj id mol type xu yu zu
dump_modify     	1 sort id
run            		250000
Per MPI rank memory allocation (min/avg/max) = 17.79 | 17.96 | 18.28 Mbytes
Step Temp Press Density Pxx Pyy Pzz Pxy Pxz Pyz PotEng KinEng TotEng E_vdwl E_coul E_pair E_bond E_angle E_dihed E_impro E_mol E_tail Enthalpy Volume 
       0       373.15    71410.974    1.0000083    67876.665    71036.652    75319.605    8131.6423   -9355.3575    334.22115    7852.9151    2193.4344     10046.35    1535.0888    942.72335    2477.8122    1024.0186    3599.8503    751.23401            0    5375.1029   -36.851475     25873.13    15196.785 
    1000    1011.5727    34574.199    1.0000083    31510.542    30650.523    41561.532   -2058.0296    3225.2197    5226.7095    6798.8659    5946.1836     12745.05   -148.13692    514.70343    366.56651    1924.8493    3550.4095    957.04066            0    6432.2994   -36.851475    20407.713    15196.785 
    2000    981.89648    28990.998    1.0000083    21154.419    29210.257    36608.319    1413.2109   -1335.5203    2553.6777     6256.109    5771.7421    12027.851    -369.6989    310.60851   -59.090382    1997.7525      3376.16    941.28688            0    6315.1994   -36.851475    18453.112    15196.785 
    3000    1031.1691    27842.566    1.0000083     26653.05    27220.695    29653.952    1909.8182     473.4313    -251.9231    6214.8364    6061.3745    12276.211   -439.94429      278.376   -161.56829    2001.8511    3450.4785    924.07505            0    6376.4047   -36.851475    18446.945    15196.785 
    4000    1014.0345    26222.414    1.0000083    24293.356    27834.294    26539.593   -2684.6985    1280.4379    1931.2383    6143.9405    5960.6542    12104.595   -483.79039    246.51363   -237.27676     1967.361    3495.1923    918.66403            0    6381.2173   -36.851475    17916.256    15196.785 
    5000    972.57423     22292.62    1.0000083    24269.855    20640.721    21967.284     3315.248   -2370.4149   -749.15764    6349.5719    5716.9444    12066.516   -464.14979    219.35571   -244.79409    2099.6604    3563.0987    931.60694            0     6594.366   -36.851475    17007.219    15196.785 
    6000    1014.0502    26341.573    1.0000083    27773.764    25290.877     25960.08   -305.35718    2701.7332   -2277.6134    6008.0198     5960.747    11968.767   -481.73113    278.80808   -202.92306    2066.5071    3221.8559    922.57983            0    6210.9429   -36.851475    17806.837    15196.785 
    7000    995.47625    28260.837    1.0000083    27885.946    29582.271    27314.294   -4122.2461   -3166.7957    765.32432    6264.9873    5851.5661    12116.553   -436.01503    215.54936   -220.46567    2085.1275     3458.738    941.58744            0    6485.4529   -36.851475    18379.989    15196.785 
    8000    1016.6439    29366.431    1.0000083    29722.059    29984.639    28392.596    2856.3509    5470.1815   -2301.8268     6118.375    5975.9928    12094.368   -450.03979    125.43171   -324.60807    1979.8453    3518.4307    944.70712            0    6442.9831   -36.851475    18602.836    15196.785 
    9000    1002.3368    28371.917    1.0000083    25636.472    29788.076    29691.204   -996.03762   -2502.0551    3572.4986    6161.3109    5891.8934    12053.204   -413.11252    316.42424   -96.688286    1986.3549    3351.9124    919.73199            0    6257.9992   -36.851475    18341.259    15196.785 
   10000    1009.6673    22044.848    1.0000083    16517.539    27106.693    22510.314   -249.25395   -6.3335311     4900.959    6463.3577    5934.9836    12398.341   -448.77845    321.44791   -127.33054    2115.9623    3514.3893    960.33666            0    6590.6882   -36.851475     17284.13    15196.785 
   11000    982.36722    24733.837    1.0000083     19424.13    26386.637    28390.745     131.3359    1098.5904   -1955.2681    6303.9834    5774.5092    12078.493   -430.65514    299.25747   -131.39767    2012.0251    3469.5956     953.7604            0    6435.3811   -36.851475    17560.241    15196.785 
   12000    990.83548    24611.571    1.0000083    23865.359    21968.755    28000.598    386.00206    1239.5837    140.13872    6043.0989    5824.2869    11867.386   -487.92099     272.6831   -215.23789    2006.9108    3349.0238    902.40211            0    6258.3368   -36.851475    17322.036    15196.785 
   13000    995.17077    29228.422    1.0000083    31370.818    28358.158    27956.291    4565.8226    299.85655    1429.9686    6227.3871    5849.7704    12077.157   -389.35098    366.70205   -22.648935    1930.2779    3417.2479    902.51014            0     6250.036   -36.851475    18555.039    15196.785 
   14000    1001.0322    28338.651    1.0000083    27322.747     33133.47    24559.738    933.31958    1383.8291    1902.5531    6138.3061    5884.2249    12022.531   -455.65624    210.01698   -245.63927    2084.1928    3371.0269    928.72565            0    6383.9453   -36.851475    18303.213    15196.785 
   15000    1026.9245    25543.479    1.0000083     26108.18     29335.08    21187.177   -4196.9221    1919.5933    -763.6923    6237.8983     6036.424    12274.322   -423.65553    282.06062   -141.59491     1977.884    3456.8667    944.74247            0    6379.4932   -36.851475    17935.511    15196.785 
   16000    1002.2321     26611.51    1.0000083    28034.921    31305.986    20493.622    2805.8219   -4782.5236    3174.3877    6052.7445    5891.2781    11944.023   -423.17803    252.87412   -170.30391    1926.1151    3359.3073    937.62596            0    6223.0484   -36.851475    17841.919    15196.785 
   17000    997.60004    25938.956    1.0000083    25227.697    25811.757    26777.412   -4383.7084    714.62836    1295.1083    6243.6662    5864.0501    12107.716   -395.34256    227.17148   -168.17109    1999.7004    3455.6047     956.5322            0    6411.8373   -36.851475    17856.555    15196.785 
   18000    965.83624    24526.834    1.0000083     28295.91    20843.815    24440.776   -50.013507    4654.4187   -1141.2947    6285.4686    5677.3375    11962.806   -496.54502    372.58793   -123.95708    2036.3225    3439.3065    933.79664            0    6409.4257   -36.851475    17398.677    15196.785 
   19000    999.42043    25136.308    1.0000083    25515.514    24095.555    25797.855    2212.1672    3202.6299    2555.9784     6055.633    5874.7506    11930.384    -431.9878    169.85962   -262.12817    1986.8193    3401.4085    929.53334            0    6317.7612   -36.851475    17501.331    15196.785 
   20000    1025.5957    22116.685    1.0000083    16672.523    23718.556    25958.976    913.02882    3514.0145    1726.6719    6064.2496    6028.6128    12092.862   -505.17042    -7.910117   -513.08054    2148.2093    3502.2211    926.89968            0    6577.3301   -36.851475    16994.573    15196.785 
   21000    991.12284    26400.217    1.0000083    30297.062    25069.495    23834.093   -1566.3166    1183.6298   -5450.1612    6103.3618    5825.9761    11929.338   -392.17614    279.72727   -112.44887    2018.3477    3291.4777    905.98538            0    6215.8107   -36.851475    17780.405    15196.785 
   22000    971.24266    22551.412    1.0000083    21554.811    17657.425        28442   -1427.6716    2898.7166   -4737.3925     6198.478    5709.1172    11907.595   -453.91379    107.93446   -345.97933     2035.737    3562.9652    945.75513            0    6544.4573   -36.851475    16905.654    15196.785 
   23000    982.63315    28985.189    1.0000083     24801.15    29263.325    32891.093   -483.62477   -1188.0299   -1629.2137    6181.4294    5776.0723    11957.502   -426.90457    224.19453   -202.71004    1992.5583    3488.3657    903.21536            0    6384.1394   -36.851475    18381.475    15196.785 
   24000    1028.1958    21935.607    1.0000083    21045.287    21961.322    22800.213    5271.0968     803.1958    2902.2313    6043.8236    6043.8968     12087.72   -491.78104    269.78038   -222.00066    1994.2194    3332.3808    939.22405            0    6265.8243   -36.851475    16949.299    15196.785 
   25000    1016.4874    26380.957    1.0000083    28840.991    25388.705    24913.176   -740.40296   -4776.6531   -2902.1012    6256.8327    5975.0727    12231.905   -513.78038    425.19292   -88.587466    1985.1468    3427.5338    932.73953            0    6345.4201   -36.851475    18078.704    15196.785 
   26000    990.57161    25687.562    1.0000083     23035.04    22346.946    31680.702    1508.5009   -2513.6464    457.18853    6326.0905    5822.7359    12148.826   -445.89246    288.04086   -157.85159    2031.6514    3504.2035    948.08722            0    6483.9421   -36.851475    17841.948    15196.785 
   27000    990.48379    28096.547    1.0000083    31754.674    25997.132    26537.835    4509.1032    611.25157   -2270.7707    6118.1336    5822.2197    11940.353   -405.07849    220.59411   -184.48438    2036.7783     3358.357    907.48277            0     6302.618   -36.851475    18167.378    15196.785 
   28000    1006.5622    24593.166    1.0000083    24725.145    21831.724    27222.628    718.90964    198.13135   -1398.2156    6153.9381    5916.7311    12070.669   -472.45409    130.80246   -341.65163    1979.3561    3543.1702    973.06341            0    6495.5897   -36.851475    17521.241    15196.785 
   29000    967.51342    25220.543    1.0000083    22083.751    29661.489     23916.39   -1066.0193   -1742.3607    4798.6804    6271.6364    5687.1962    11958.833    -460.0534    248.41579   -211.63761    2000.7905    3521.3445    961.13913            0    6483.2741   -36.851475     17548.45    15196.785 
   30000     1003.196    24934.658    1.0000083    27522.783    29451.951    17829.238    2055.3604   -4618.3938   -394.70855    6313.4234     5896.944    12210.367   -445.64224    370.49085   -75.151388     1998.836     3427.538    962.20074            0    6388.5747   -36.851475    17736.624    15196.785 
   31000    1030.0876    24955.463    1.0000083    30467.946    19330.843    25067.601    1624.1937    5135.8134    241.52539    6112.8603    6055.0169    12167.877   -443.87429    190.70102   -253.17327    2056.4489    3391.3032    918.28147            0    6366.0336   -36.851475    17698.745    15196.785 
   32000    978.34875      25271.4    1.0000083    22114.813    23859.938    29839.448    -5216.113    1190.7068    64.874634    6183.9001     5750.888    11934.788    -420.9598    249.53628   -171.42352    2007.1687    3407.9757    940.17926            0    6355.3236   -36.851475    17535.676    15196.785 
   33000    1042.6198    30200.403    1.0000083    26944.518    36173.751    27482.941   -446.88685    1969.3872    1482.3626    6307.7171    6128.6835    12436.401   -431.55535    433.47107    1.9157263    2012.0713    3370.1585    923.57159            0    6305.8014   -36.851475    19129.702    15196.785 
   34000     996.8459    22264.433    1.0000083    19636.848    26951.506    20204.946    2676.2992    4871.5362    -5743.328    6248.6019    5859.6171    12108.219   -423.76572    206.18135   -217.58437     2035.964    3508.8337    921.38864            0    6466.1863   -36.851475    17042.675    15196.785 
   35000     986.0681    21862.665    1.0000083     17219.93    19697.882    28670.182   -552.79132    5381.8062   -705.97676    6013.9623    5796.2635    11810.226   -472.78876     222.7936   -249.99516    1973.6321    3345.9948    944.33067            0    6263.9575   -36.851475    16655.638    15196.785 
   36000    957.73883    24208.136    1.0000083    22793.977    27150.675    22679.756   -5475.8793   -135.44653     64.10029    6188.3192    5629.7396    11818.059   -452.08176    219.16538   -232.91639    2006.4216    3459.9232     954.8908            0    6421.2356   -36.851475    17183.296    15196.785 
   37000    975.24788    23248.411    1.0000083    24382.373    22605.967    22756.892   -5321.0158    1308.5437   -2531.4276    6434.9582    5732.6605    12167.619   -458.05913    160.86481   -297.19432    2147.8088      3650.38    933.96368            0    6732.1525   -36.851475    17320.153    15196.785 
   38000    986.97155    22829.403    1.0000083     28787.16    19341.778    20359.272   -4764.3347   -2338.2629    -1848.662    5826.4401    5801.5741    11628.014   -465.90476  -0.10236268   -466.00712    1875.3615     3483.186    933.89968            0    6292.4472   -36.851475    16687.684    15196.785 
   39000    1026.0519    22229.009    1.0000083    23781.641    18609.606    24295.781    2253.0712    132.27905   -5052.6303    5873.9475    6031.2945    11905.242     -526.669    124.46174   -402.20726    1963.5394    3377.7027    934.91262            0    6276.1547   -36.851475    16831.847    15196.785 
   40000    984.52895    24610.245    1.0000083    25321.245    23179.606    25329.883   -2368.8899    1996.8477    67.816446    6248.5942    5787.2161     12035.81   -413.53064    359.59884   -53.931798    1994.9684    3387.5695    919.98816            0     6302.526   -36.851475    17490.167    15196.785 
   41000    996.66955    20167.254    1.0000083    17598.426    11776.879    31126.459    1039.6983   -1403.7048     2525.139    5815.5355    5858.5805    11674.116   -460.28734   -68.421132   -528.70848    2067.6262    3344.2778    932.33998            0     6344.244   -36.851475    16143.775    15196.785 
   42000    1007.1813    22425.755    1.0000083    19183.607    25997.331    22096.327    696.31586    3470.1129   -683.39709    6219.8215    5920.3702    12140.192   -418.47424    123.75953   -294.71471    2017.6857     3568.804    928.04652            0    6514.5362   -36.851475    17110.401    15196.785 
   43000     1013.579    29031.878    1.0000083    33002.992    26804.395    27288.247    360.24588   -2910.3655   -3025.5785    5996.5616     5957.977    11954.539   -475.03886    331.86165   -143.17721    1848.8622    3357.0405    933.83604            0    6139.7388   -36.851475     18388.86    15196.785 
   44000    988.79388     23546.53    1.0000083    21271.643    25846.742    23521.206    2318.3259    3841.6193    540.61743    5844.6575    5812.2861    11656.944   -447.79106    142.78162   -305.00944    1963.4127    3274.9709    911.28335            0    6149.6669   -36.851475     16875.55    15196.785 
   45000    983.82021    25068.677    1.0000083    20226.552    30083.374    24896.106    411.66763    3792.2562   -6875.6239    6213.7196    5783.0501     11996.77   -546.26716    256.14269   -290.12447    2065.7161    3481.8929    956.23509            0    6503.8441   -36.851475    17552.729    15196.785 
   46000    1000.2654      27463.6    1.0000083    23879.948    31460.007    27050.845   -6906.1343    7439.7104    599.55766    6172.0988    5879.7177    12051.816   -446.35251    275.86671    -170.4858    1957.0101    3440.2296     945.3449            0    6342.5846   -36.851475    18138.561    15196.785 
   47000    966.09601     27824.49    1.0000083    27490.628    23827.422    32155.421    943.37999   -434.75477   -2936.9988    6178.0112    5678.8644    11856.876   -506.92704    198.86438   -308.06266    1927.5629    3607.8849    950.62604            0    6486.0738   -36.851475    18023.604    15196.785 
   48000    1025.2092    27367.959    1.0000083     27489.58    30481.976     24132.32    -2315.108    1379.3917   -770.97918    6396.9328    6026.3413    12423.274   -362.95041    296.80015   -66.150256    2083.4851    3431.3685    948.22943            0    6463.0831   -36.851475    18488.822    15196.785 
   49000    991.40374    28257.775    1.0000083    20741.625    27701.702    36329.998    6073.1249   -1629.6368    2080.5332     6249.174    5827.6272    12076.801   -448.85743    223.88196   -224.97546    2044.9733    3471.5825    957.59369            0    6474.1495   -36.851475    18339.558    15196.785 
   50000    972.00254    27995.328    1.0000083     23608.23    31174.675    29203.078   -4574.8716   -3513.9446   -3831.0763    6239.1011    5713.5839    11952.685   -429.11389    450.20248    21.088584    1917.9411    3331.9885     968.0829            0    6218.0125   -36.851475    18157.276    15196.785 
   51000    981.25906    27186.171    1.0000083    25614.523    29472.858     26471.13   -7301.5265    6773.1014    2863.6654    6383.5647    5767.9952     12151.56    -417.1124    355.91267   -61.199729    2021.4209     3465.795    957.54849            0    6444.7644   -36.851475    18176.818    15196.785 
   52000    1009.7317    24515.053    1.0000083    27812.104    27056.519    18676.535    1486.9069   -4697.9621   -1631.1486    6185.7643    5935.3618    12121.126   -421.14219    247.49168   -173.65051    2052.9965    3345.3122    961.10623            0    6359.4149   -36.851475    17554.386    15196.785 
   53000    985.36647    25704.645    1.0000083    25442.377     22542.68    29128.878    4892.5929   -2419.1975    -233.2873    6004.6488    5792.1392    11796.788   -454.48251    149.81191    -304.6706    1983.6885    3366.9422    958.68876            0    6309.3194   -36.851475    17493.696    15196.785 
   54000    970.75452    23153.598    1.0000083    20886.785    22103.714    26470.294   -478.01357    1155.0945    2900.7355    6295.8822    5706.2479     12002.13   -427.05836     329.0104   -98.047955    2043.8963    3386.5484    963.48545            0    6393.9301   -36.851475    17133.651    15196.785 
   55000    1011.6345    25735.232    1.0000083    24102.824    27981.685    25121.187   -1735.4887    4707.3856   -1676.3323    6241.7965    5946.5471    12188.344   -475.39902    114.38837   -361.01065    2146.3775    3491.3315    965.09811            0    6602.8072   -36.851475    17892.031    15196.785 
   56000    998.30356    27004.501    1.0000083    28983.089    24552.338    27478.074   -71.346844   -2689.5199    2806.0193    6210.3003    5868.1855    12078.486   -399.63419     311.0005    -88.63369    2082.6502    3288.4317    927.85213            0     6298.934   -36.851475     18063.48    15196.785 
   57000    1017.0791    23533.845    1.0000083    16807.554    25919.216    27874.764    447.93568    1540.4228   -1155.5492    6195.7943    5978.5513    12174.346   -522.39735    156.79357   -365.60378    2083.4019    3548.8552    929.14098            0    6561.3981   -36.851475     17390.14    15196.785 
   58000      1001.27    27107.813    1.0000083    26620.809    32056.335    22646.294    2541.6572    -239.9042   -2290.5535    6331.1303    5885.6225    12216.753   -411.07685    366.64711   -44.429735     1964.777    3489.6872    921.09576            0      6375.56   -36.851475    18224.644    15196.785 
   59000    979.49274    28836.366    1.0000083    31532.302    23580.401    31396.395    2307.0814    3158.6737   -1158.4534    6246.4112    5757.6125    12004.024   -412.78825    367.27154   -45.516711     1982.349    3368.4628    941.11611            0    6291.9279   -36.851475    18395.014    15196.785 
   60000    965.92343    22921.914    1.0000083    19789.248     25263.36    23713.134    5.4744467    3394.5417    975.11112    6390.6929      5677.85    12068.543   -387.00771    413.03978    26.032075    2025.7718    3377.7793    961.10968            0    6364.6608   -36.851475    17148.716    15196.785 
   61000     993.4608    23765.951    1.0000083    25990.473    21803.034    23504.345   -540.97494    3025.5441   -1765.1779    6210.0688    5839.7189    12049.788    -471.9521    209.90518   -262.04692    2133.3908    3407.6486    931.07635            0    6472.1157   -36.851475    17317.024    15196.785 
   62000    999.62678    23240.912    1.0000083    22432.127    18983.314    28307.293   -2556.2002   -2104.0338    947.60085    6121.0555    5875.9636    11997.019   -507.68154    269.03159   -238.64995    1949.2372    3475.7085    934.75975            0    6359.7054   -36.851475    17147.891    15196.785 
   63000    977.98863    21518.732    1.0000083    16764.914    26475.422    21315.862   -4021.2167   -4131.2148   -1673.7008    6043.0003    5748.7711    11791.771   -519.78886    323.26616    -196.5227    1932.6087    3381.0822    925.83208            0     6239.523   -36.851475    16560.958    15196.785 
   64000    999.58883    27496.419    1.0000083    27008.424    27859.031    27621.801    39.539082   -2335.8704    1515.5518    6181.7418    5875.7405    12057.482   -480.90436    279.13471   -201.76965    2111.0151    3359.9467    912.54971            0    6383.5115   -36.851475      18151.5    15196.785 
   65000    996.02227    30203.167    1.0000083    26834.365     34169.99    29605.145   -1321.1976   -712.91677    2323.3296    6078.7219    5854.7757    11933.498   -407.51659     207.6346   -199.88199    1870.5087    3498.8793    909.21592            0    6278.6039   -36.851475    18627.411    15196.785 
   66000    1007.0418     24808.41    1.0000083    26666.831    20727.707    27030.691    208.40464    5195.5488   -5688.0375    6375.0522      5919.55    12294.602   -414.18476    305.21295   -108.97181    2016.0591    3537.1989    930.76604            0    6484.0241   -36.851475    17792.878    15196.785 
   67000    996.19434    26500.883    1.0000083    27336.026    22698.304    29468.319   -5799.3375    6431.4822    1765.1662    6192.2992    5855.7872    12048.086   -476.04717    301.68094   -174.36623    2074.8445     3362.584    929.23702            0    6366.6655   -36.851475    17921.464    15196.785 
   68000    1002.1986    25296.815    1.0000083    21741.611    28409.009    25739.825    2715.9737     403.7055   -1852.7492    6119.2134     5891.081    12010.294   -491.35944    259.08036   -232.27908    2019.3821    3419.0985    913.01194            0    6351.4925   -36.851475    17616.815    15196.785 
   69000    991.36963    24966.707    1.0000083     19626.38    31896.265    23377.477   -1407.1331   -870.71825   -941.70664    6227.9918    5827.4267    12055.419    -397.9522    355.32288   -42.629328    2119.0219     3203.059    948.54019            0    6270.6212   -36.851475    17588.778    15196.785 
   70000    1002.5397    26234.999    1.0000083    22002.516    25911.721     30790.76    1226.5076   -700.94952    509.71319    6293.4181     5893.086    12186.504   -466.43313    348.50915   -117.92397    2070.3095    3395.7419     945.2906            0    6411.3421   -36.851475    18000.954    15196.785 
   71000    979.18693    28812.643    1.0000083    28082.597    27692.236    30663.094    832.43641   -3563.3868    -519.2596    6296.5952    5755.8149     12052.41   -466.13824    469.50464    3.3663968    2031.1673    3324.2901    937.77135            0    6293.2288   -36.851475    18438.142    15196.785 
   72000    1032.4596    26604.794    1.0000083    27844.315    24743.401    27226.665   -4812.3666    1354.6415   -352.38639    6119.4292    6068.9602    12188.389   -549.31125    282.18777   -267.12349    2022.2061    3407.8778    956.46891            0    6386.5527   -36.851475    18084.797    15196.785 
   73000    990.82411    25150.709    1.0000083    19577.954    27308.925    28565.246    1416.4174   -1157.3172    5739.8751    6189.5195    5824.2201     12013.74   -462.99962    377.19063   -85.808991     1998.987    3344.7135    931.62798            0    6275.3285   -36.851475    17587.879    15196.785 
   74000     1018.862    27611.678    1.0000083    32253.247    26821.017    23760.768   -9453.9688    3423.9001    -729.4855    6461.7934    5989.0313    12450.825   -482.49764    415.77292   -66.724713    2165.9891    3422.8417    939.68735            0    6528.5181   -36.851475    18570.388    15196.785 
   75000    1001.8796    27199.582    1.0000083    25851.351    27127.041    28620.355   -6149.9175   -1311.5985   -143.91434    6102.4088    5889.2063    11991.615   -430.89257    295.56048   -135.33209    2030.7398    3285.9514    921.04966            0    6237.7409   -36.851475    18019.846    15196.785 
   76000    979.24256    26895.037    1.0000083    25722.856    30566.744     24395.51   -6272.5471   -3410.2433    2797.7173    6435.7461    5756.1419    12191.888    -480.3037    350.84755   -129.45615    2038.3992    3599.1475    927.65565            0    6565.2023   -36.851475    18152.622    15196.785 
   77000     1006.795    28275.212    1.0000083    25709.396    27641.335    31474.906   -5136.4652   -3698.9394   -1530.0036    6060.0833    5918.0996    11978.183   -427.14621    350.29419   -76.852023    1995.9818    3260.1839     880.7696            0    6136.9353   -36.851475    18244.805    15196.785 
   78000    978.78887    26396.657    1.0000083    20598.442    29359.098    29232.432    -2933.001   -3467.3846    348.20351    6016.0052    5753.4751     11769.48   -363.18072     136.1295   -227.05122     2046.459    3266.7135    929.88394            0    6243.0565   -36.851475    17619.759    15196.785 
   79000    1023.7399    28091.353    1.0000083    25478.645    31332.562    27462.852   -750.96481   -4828.3521    -6272.067    5989.9996    6017.7042    12007.704   -463.71271    208.88876   -254.82395     1962.891    3374.1566     907.7759            0    6244.8236   -36.851475    18233.577    15196.785 
   80000    1010.6208    23088.056    1.0000083    23782.838    19821.269    25660.061   -6871.8065    1784.7843   -3834.5374    5892.7467    5940.5884    11833.335   -466.00191    90.600282   -375.40163    1979.1277    3351.0527    937.96792            0    6268.1483   -36.851475     16950.33    15196.785 
   81000     1042.842    24746.166    1.0000083    21746.069    24293.866    28198.562   -941.66176     3586.169   -1265.3094     6084.165    6129.9895    12214.154   -485.54431    199.14346   -286.40085    2046.6989    3383.4365    940.43042            0    6370.5658   -36.851475    17698.635    15196.785 
   82000    1014.6053    26589.462    1.0000083    26165.149    26818.946    26784.289   -540.76484    350.20418    2551.5513    6166.5565    5964.0098    12130.566   -456.40062    286.77108   -169.62954    1941.1862    3438.9452    956.05465            0    6336.1861   -36.851475    18023.576    15196.785 
   83000    971.71245    23465.989    1.0000083     21893.75     25683.55    22820.669    4106.8214   -4008.5977   -3312.5664    6100.8023    5711.8787    11812.681   -484.51374    268.10959   -216.40416    1992.3845    3391.4447    933.37724            0    6317.2065   -36.851475    17013.437    15196.785 
   84000     1010.613    29380.925    1.0000083    25060.335    30988.045    32094.395   -2368.0252   -89.023761    2068.8194     5985.925    5940.5423    11926.467   -422.46244    162.97797   -259.48448    2047.7412     3273.621    924.04717            0    6245.4094   -36.851475    18438.148    15196.785 
   85000    988.96484    24295.831    1.0000083     29321.11    20851.637    22714.747    1455.7232    4053.2998   -2341.8638    6277.9453     5813.291    12091.236   -501.98127    329.10851   -172.87276    2002.3149    3498.9208    949.58244            0    6450.8181   -36.851475     17475.91    15196.785 
   86000    987.59239    28136.188    1.0000083    28320.818    25358.734    30729.013   -4526.7465    2798.4285   -5047.8915    6232.3793    5805.2235    12037.603   -412.83197    178.56144   -234.27053    2144.1544    3392.6401    929.85533            0    6466.6498   -36.851475    18273.413    15196.785 
   87000    986.82613    21421.925    1.0000083     18700.73    25853.457    19711.589    1311.7742     526.2845   -1364.1645    6330.1631    5800.7193    12130.882   -464.27504     211.2027   -253.07234    2162.7163    3481.1345    939.38464            0    6583.2354   -36.851475    16878.613    15196.785 
   88000    1028.4463    27248.215    1.0000083    25998.211    29090.802    26655.632   -3501.0297     1007.587    8384.8053    6052.6569    6045.3695    12098.026   -483.88717    325.62916   -158.25801    1990.1787    3309.9498    910.78646            0    6210.9149   -36.851475    18137.035    15196.785 
   89000    982.18846    21757.665    1.0000083     23628.67    19595.292    22049.031    1082.0249    -4223.755    5875.8098    6176.2265    5773.4584    11949.685   -501.59747    408.83394   -92.763534    1919.3192    3415.8985    933.77231            0      6268.99   -36.851475    16771.826    15196.785 
   90000    985.07022    21940.356    1.0000083    18610.741    17992.036     29218.29    1595.1017   -1499.4041    1057.9666    5871.0959    5790.3978    11661.494   -514.31585    68.386613   -445.92924     1967.137    3424.7684    925.11974            0    6317.0251   -36.851475    16524.124    15196.785 
   91000    1009.6957    26353.449    1.0000083    24905.297    30749.125    23405.924    1476.2211    2622.7863   -4719.4832    6245.3975    5935.1502    12180.548   -437.65645    206.13842   -231.51803    2054.6125    3508.6235    913.67957            0    6476.9156   -36.851475     18021.25    15196.785 
   92000    988.45308    28045.813    1.0000083    26049.629    27526.622    30561.189   -870.12746    2071.1085    3739.8231    6083.1762    5810.2828    11893.459   -441.62378    276.84359   -164.78019    2027.8567    3277.3965    942.70322            0    6247.9563   -36.851475    18109.239    15196.785 
   93000     995.5118    25614.139    1.0000083    22934.216    24552.793    29355.409    3662.2638   -1275.6696   -117.93697    6137.1991    5851.7751    11988.974   -486.32554    172.83753   -313.48801    2029.6353    3447.2268    973.82505            0    6450.6872   -36.851475    17665.824    15196.785 
   94000    1008.2094     24252.45    1.0000083     22159.54    23475.504    27122.306   -2216.8843    3280.6973    2421.2627    6053.9707    5926.4136    11980.384    -432.8101    161.05716   -271.75294    2011.5383    3334.4239    979.76142            0    6325.7237   -36.851475    17355.443    15196.785 
   95000    973.80311    24767.933    1.0000083    26345.175    23505.883    24452.741    2589.5139    3186.3021   -137.22135    6116.5402     5724.168    11840.708   -439.63785    216.97285   -222.66501    2098.5023    3313.4496    927.25329            0    6339.2052   -36.851475    17330.013    15196.785 
   96000    1056.8549     25893.09    1.0000083     26166.46    28060.651    23452.159    2309.4975   -1328.2804    1378.1699    6024.7919    6212.3593    12237.151   -500.52915    269.88611   -230.64304    1973.7205    3355.4764    926.23805            0     6255.435   -36.851475    17975.824    15196.785 
   97000    972.31312    25256.019    1.0000083    26371.508    26656.795    22739.755   -1081.9351   -2643.1479    2412.0477    6030.9413    5715.4096    11746.351   -472.42566    251.48044   -220.94521    1921.2347    3409.5926     921.0592            0    6251.8865   -36.851475     17343.83    15196.785 
   98000    993.67389    21430.153    1.0000083        21209    24880.591    18200.869    4030.3051   -1860.1741   -2940.0913    6162.6868    5840.9715    12003.658    -406.8591    213.24537   -193.61373    2052.7113    3362.8551    940.73419            0    6356.3005   -36.851475    16753.213    15196.785 
   99000    986.26826    24253.842    1.0000083      22223.4    21969.093    28569.034    288.58253    -5844.865   -737.21117    6129.3421    5797.4401    11926.782   -456.57397    284.98929   -171.58468    2057.0214    3323.0011    920.90436            0    6300.9268   -36.851475     17302.15    15196.785 
  100000    1013.2789    19613.688    1.0000083    17281.598    21661.943    19897.523   -517.05319   -2754.1465    2998.2705    6135.6446    5956.2128    12091.857   -415.87372    368.31851   -47.555205    1957.9563    3303.2778    921.96565            0    6183.1998   -36.851475     16438.83    15196.785 
  101000    1005.1019    24369.505    1.0000083    23613.222    26568.442    22926.852    4653.2935    1485.7269    2800.8824    6272.2685    5908.1471    12180.416   -488.88891    302.25385   -186.63505    2041.2607    3457.9219    959.72103            0    6458.9036   -36.851475    17581.417    15196.785 
  102000    973.04699    26433.718    1.0000083    25843.004    27443.737    26014.413   -716.92344   -3172.3815   -1206.1474    6266.7345    5719.7234    11986.458   -515.71867    501.02101   -14.697661    1947.4981    3383.1873    950.74669            0    6281.4321   -36.851475     17844.95    15196.785 
  103000    999.14134    21206.664    1.0000083    19767.058     20694.32    23158.613   -4551.7814   -148.60033    322.62119    6316.3586    5873.1101    12189.469   -422.95416     408.4081   -14.546056    1969.6943    3434.8737    926.33676            0    6330.9047   -36.851475    16889.491    15196.785 
  104000     978.3817    22715.756    1.0000083    21428.324    20556.627    26162.318    5297.4243    2212.6276    2563.9711    6190.8583    5751.0816     11941.94   -498.95038     257.2558   -241.69458    1937.5536    3529.0707    965.92866            0    6432.5529   -36.851475    16976.422    15196.785 
  105000    977.79396    26575.804    1.0000083    29761.647    27390.649    22575.116    2089.1242    778.92029   -2363.6772    6506.4943    5747.6268    12254.121   -420.40532    421.71153    1.3062092    2062.9938    3498.1949    943.99946            0    6505.1881   -36.851475    18144.104    15196.785 
  106000    1021.6216    23596.841    1.0000083    26102.561    20576.832    24111.131    -2305.148    769.39543    231.49728    6127.3671    6005.2529     12132.62   -473.85734    296.98455   -176.87279    1991.8404    3380.3188    932.08065            0    6304.2399   -36.851475    17362.377    15196.785 
  107000    986.46827    25123.478    1.0000083    29443.228    19420.952    26506.252    4169.4332    2079.5349   -338.19576    6112.8758    5798.6158    11911.492   -454.36929    218.01036   -236.35893     1944.899    3467.7941    936.54164            0    6349.2347   -36.851475    17479.596    15196.785 
  108000    1009.1977    27975.588    1.0000083    22822.777    33105.228    27998.759    1242.7628   -376.91735   -1444.5644    6194.3698    5932.2228    12126.593   -458.59625    150.22865    -308.3676    2068.2094    3488.8992    945.62878            0    6502.7374   -36.851475    18326.809    15196.785 
  109000    1025.0873    23174.652    1.0000083    19244.684    25392.669    24886.601   -2393.9264   -704.90926   -5149.6417    6049.7611    6025.6245    12075.386   -478.10017    163.33197    -314.7682    2005.2331    3427.0411    932.25512            0    6364.5293   -36.851475    17211.573    15196.785 
  110000    990.69027    25437.339    1.0000083    23181.531     30100.99    23029.497    4900.4198     731.3835   -253.04521    6250.2293    5823.4333    12073.663   -439.48032    268.16636   -171.31397    2072.3886    3427.9211    921.23357            0    6421.5433   -36.851475    17711.328    15196.785 
  111000    1027.2341    28604.408    1.0000083    21810.851    34029.727    29972.647    4889.6893    -3545.694   -507.86456    6275.4783    6038.2437    12313.722    -464.8346    468.23089    3.3962864    1915.6009      3427.51    928.97102            0     6272.082   -36.851475    18653.303    15196.785 
  112000    994.28022    24950.737    1.0000083    23834.923    24666.956    26350.332   -820.20617   -4794.8149    564.37582    6161.1105    5844.5357    12005.646   -477.82365     259.0222   -218.80145     2003.312     3447.508    929.09202            0     6379.912   -36.851475    17535.466    15196.785 
  113000    1019.1678    23523.348    1.0000083    25613.025    25739.421    19217.597   -2457.1002   -2110.8457   -2149.4959    6180.6203    5990.8287    12171.449   -476.59649    266.49758   -210.09891    2033.0855    3427.1328    930.50089            0    6390.7192   -36.851475    17384.917    15196.785 
  114000    1001.8086    29433.942    1.0000083     29696.75      27772.7    30832.375   -1404.0124   -6565.0546   -2178.9933    6107.8159    5888.7888    11996.605   -470.82262    331.68876   -139.13386    1935.6656    3380.3163    930.96792            0    6246.9498   -36.851475    18520.035    15196.785 
  115000    1051.6396    28384.376    1.0000083    25027.386    30254.855    29870.887    5671.7039    3709.6207    574.45485    6337.9014     6181.703    12519.604   -503.06638    393.49618    -109.5702    2062.9389    3446.2874    938.24524            0    6447.4716   -36.851475     18810.42    15196.785 
  116000     1007.972    25206.449    1.0000083    23220.395    27962.797    24436.155   -4569.2292    2320.3616    1380.8143    6150.8359    5925.0183    12075.854   -429.98223    171.39623     -258.586    2078.2063    3409.3022    921.91343            0    6409.4219   -36.851475    17662.347    15196.785 
  117000    974.93877    19416.963    1.0000083    16157.832    26367.369    15725.688    843.05648   -1063.8734   -4453.7267    5952.3538    5730.8436    11683.197   -482.82096    152.99942   -329.82155    2039.6131    3304.0792    938.48296            0    6282.1753   -36.851475     15986.57    15196.785 
  118000    994.64022    22227.691    1.0000083    21184.474    26564.324    18934.276    5022.4533   -750.44319    734.27534     5880.394    5846.6518    11727.046   -545.74804   -28.730051   -574.47809    2047.7382    3473.9531    933.18086            0    6454.8721   -36.851475    16653.358    15196.785 
  119000    1008.5261    20425.563    1.0000083    20364.517    22438.299    18473.872   -3125.8214   -1670.8358   -1723.9446    5911.2885    5928.2751    11839.564   -556.91198    151.53872   -405.37326     1983.714    3415.0539    917.89396            0    6316.6618   -36.851475    16366.471    15196.785 
  120000    998.68612    24912.405    1.0000083    23822.811    25042.486    25871.917    646.36379   -1937.5136    4617.9855    6167.1291    5870.4342    12037.563   -449.48649    245.83443   -203.65207    1990.9806    3413.9662    965.83435            0    6370.7812   -36.851475    17558.888    15196.785 
  121000    991.51382    28727.538    1.0000083    28926.827    28730.361    28525.425   -838.57158     6085.082    727.10379    6432.4393    5828.2743    12260.714   -436.32715     336.6337   -99.693445    1993.1249    3578.4478     960.5601            0    6532.1328   -36.851475    18627.584    15196.785 
  122000    997.52252    28632.836    1.0000083    21073.227    34314.127    30511.153    1970.4951    1087.3233   -2444.3174    6122.1321    5863.5944    11985.726   -519.09939    197.05691   -322.04249    2098.3133    3412.1881    933.67308            0    6444.1745   -36.851475    18331.608    15196.785 
  123000    998.19676    24730.696    1.0000083    25922.672    27277.676    20991.741     1084.299    4291.8532    2901.3849     6216.058    5867.5577    12083.616   -435.76284    295.20736   -140.55547     1950.849    3430.1514    975.61318            0    6356.6135   -36.851475    17564.668    15196.785 
  124000    977.04627    25898.143    1.0000083    20600.897    23934.428    33159.105    511.21149    4398.6747    -992.8817     5993.254    5743.2318    11736.486   -462.46336    169.60235   -292.86101    1982.6402    3346.8852    956.58966            0     6286.115   -36.851475    17476.279    15196.785 
  125000    993.20839    21055.723    1.0000083    24207.662    16582.325    22377.183   -1609.6313   -786.68991   -588.11653    6198.4523    5838.2353    12036.688   -419.34234    229.27084   -190.07149    2093.3235     3354.816    940.38427            0    6388.5238   -36.851475    16703.257    15196.785 
  126000    988.63136    22152.035    1.0000083    20942.805    16741.078    28772.221     791.6754    1773.9089   -492.14828     6024.727    5811.3308    11836.058   -482.03185    131.64886   -350.38299    2023.7637    3415.6238    935.72254            0      6375.11   -36.851475    16745.603    15196.785 
  127000    1012.1823    24462.059    1.0000083    19444.569    23401.588    30540.021   -2166.0032    2130.9193   -2123.1753    6052.6232     5949.767     12002.39   -437.16821    152.62719   -284.54102    2021.0793    3396.6554    919.42951            0    6337.1642   -36.851475    17423.905    15196.785 
  128000    985.00092    27545.812    1.0000083    23994.113    31990.679    26652.645   -2416.4048   -11006.223   -3656.8447    6070.9092    5789.9904      11860.9    -448.7889    106.37029    -342.4186     2079.248    3382.8382    951.24157            0    6413.3278   -36.851475    17965.865    15196.785 
  129000    1012.6422    29218.965    1.0000083    31394.066    27127.225    29135.605   -747.39961     971.6338   -4403.8565    6129.3171      5952.47    12081.787   -445.04353     159.8043   -285.23923    2042.0029    3441.7291    930.82429            0    6414.5564   -36.851475    18557.572    15196.785 
  130000    985.08319    20589.797    1.0000083    22809.891      21201.4      17758.1    2110.0315    423.37589   -221.67284    5996.1219     5790.474    11786.596   -442.49019    146.01607   -296.47412    2023.0365    3336.0112    933.54829            0     6292.596   -36.851475    16349.903    15196.785 
  131000    986.31579    21326.137    1.0000083     22749.82     17603.22    23625.373   -392.36526     4292.043   -3566.1347    6120.5123    5797.7195    11918.232   -512.48495    353.29748   -159.18748    2002.7636    3366.0417    910.89442            0    6279.6998   -36.851475    16644.733    15196.785 
  132000     1001.768    23478.156    1.0000083    22812.729    22254.862    25366.877   -6906.0501    1156.5127    4162.3686    6210.2766    5888.5499    12098.827   -479.39564    262.87643   -216.51921    2031.7697     3480.478    914.54817            0    6426.7959   -36.851475    17302.279    15196.785 
  133000    972.69447    21132.079    1.0000083    17970.807    24783.166    20642.265    5071.2146    -2704.228    2259.8926    6094.2651    5717.6512    11811.916   -417.03626    148.72133   -268.31493     2046.276    3372.7643    943.53979            0      6362.58   -36.851475    16495.409    15196.785 
  134000    998.37741    20446.155    1.0000083     20298.35    28354.105    12686.011   -3808.1374    177.94551   -980.13738    6069.3741    5868.6196    11937.994   -511.40908    185.31945   -326.08963    2078.8202    3369.4443     947.1993            0    6395.4638   -36.851475    16469.465    15196.785 
  135000    1033.4427    28261.452    1.0000083     28922.54    30509.182    25352.633    3703.5613   -441.98303   -99.490554    6271.3566    6074.7386    12346.095   -473.59418    223.64571   -249.94847    2105.0634    3465.0615    951.18016            0     6521.305   -36.851475    18609.667    15196.785 
  136000    975.33432    29280.632    1.0000083    28879.962    31773.144    27188.789   -2826.1824    1487.8829    817.75449    6129.1507    5733.1687    11862.319   -545.29862    347.84709   -197.45153    2042.5468    3360.6179    923.43751            0    6326.6022   -36.851475    18351.772    15196.785 
  137000    1009.6129    25738.877    1.0000083    23092.345    25789.634    28334.652    -205.6768    3226.9059   -3082.2045    6073.8548    5934.6638    12008.519   -462.12829    94.521716   -367.60657     2068.278    3440.7577    932.42567            0    6441.4614   -36.851475    17713.014    15196.785 
  138000    1003.2047    24929.592    1.0000083    26163.432    26165.261    22460.082    3107.3796   -3011.1437   -752.99057    6171.5972     5896.995    12068.592   -467.27281    365.30134   -101.97147    2007.3506    3339.9955    926.22249            0    6273.5687   -36.851475    17593.726    15196.785 
  139000    1008.4491    24684.312    1.0000083    20338.115    26908.602    26806.218   -2800.1638   -2205.9334    740.13242    6359.9848    5927.8223    12287.807    -486.0441    396.40128   -89.642811    1982.9491    3512.5355    954.14297            0    6449.6276   -36.851475    17758.579    15196.785 
  140000    990.13062    28032.015    1.0000083    26701.679    27582.067    29812.301   -1591.2572   -531.74126   -3887.0969    6009.1122    5820.1436    11829.256   -468.14839    146.85205   -321.29633    2054.7361    3339.7192    935.95317            0    6330.4085   -36.851475    18041.978    15196.785 
  141000    1013.1277    24132.848    1.0000083    24844.371    24129.319    23424.855    412.74229    1319.3012    3203.1689    6363.2737     5955.324    12318.598   -442.55053     361.5141   -81.036426     2139.991    3359.6934    944.62573            0    6444.3101   -36.851475    17667.149    15196.785 
  142000    999.11335    23591.311    1.0000083    19337.741    24128.518    27307.673    5212.5157     3761.911   -1550.0061    5848.7616    5872.9456    11721.707    -478.7916    141.38037   -337.41123    1988.0135    3260.1159    938.04342            0    6186.1728   -36.851475    16950.238    15196.785 
  143000    1021.0029    24598.567    1.0000083    30165.098    16822.578    26808.024    2708.3194   -333.76588   -489.99882    6446.3238     6001.616     12447.94   -526.02616    447.69404   -78.332123    2063.7149    3518.2314    942.70963            0    6524.6559   -36.851475    17899.708    15196.785 
  144000    992.84701    29032.148    1.0000083    23597.504    34725.027    28773.912   -1527.5079   -2713.0186   -256.64878    6413.9672     5836.111    12250.078   -459.86016    522.36048    62.500323    1944.8508    3471.2237    935.39233            0    6351.4669   -36.851475    18684.459    15196.785 
  145000    1009.2187    27763.493    1.0000083    23814.773    30059.551    29416.155    1204.1282   -2479.2082    2790.4187    6265.3629    5932.3462    12197.709   -498.32899     441.0266   -57.302384    1961.2588    3453.4584    907.94812            0    6322.6653   -36.851475    18350.919    15196.785 
  146000    979.85542    23921.554    1.0000083    21767.897    23684.258    26312.506   -124.89175    4955.2994    -2871.979    6169.7858    5759.7444     11929.53   -534.32212    330.05687   -204.26525    2065.8112    3380.7906    927.44928            0    6374.0511   -36.851475    17231.253    15196.785 
  147000    1022.5929    29069.885    1.0000083    29094.753     25588.01    32526.891   -3159.3004   -368.19338    -538.3308    6370.3291    6010.9619    12381.291   -471.15623    420.25654   -50.899685    1989.7795    3486.3057    945.14349            0    6421.2287   -36.851475    18824.036    15196.785 
  148000    998.89515     29882.26    1.0000083    27027.966    38203.677    24415.138    1044.5474    4302.5983    2700.0802     6284.849    5871.6629    12156.512   -436.63493    354.86714   -81.767791    2054.6349    3378.3718    933.61009            0    6366.6168   -36.851475    18779.303    15196.785 
  149000    965.13348    25823.441    1.0000083    22190.441    33155.435    22124.448    3283.7243    2498.1281     3711.534    5942.8013    5673.2065    11616.008   -431.06902    286.72409   -144.34493     1948.788    3205.4137    932.94449            0    6087.1462   -36.851475    17339.245    15196.785 
  150000     1011.425    26605.729    1.0000083    29679.298    23753.143    26384.746    455.64351   -951.23244   -2612.5174    6220.8747    5945.3151     12166.19   -479.46437    286.68443   -192.77994    2034.3791     3440.428     938.8476            0    6413.6547   -36.851475    18062.805    15196.785 
  151000    998.94116    24892.811    1.0000083    33496.406    19419.423    21762.605   -1889.9111    -1631.191    -4137.891    6176.5288    5871.9334    12048.462   -468.56163    253.43944   -215.12219    2012.1632    3428.9434    950.54444            0     6391.651   -36.851475    17565.444    15196.785 
  152000    994.31007    24979.131    1.0000083    24326.294    30357.815    20253.284    2976.7324   -1770.1933   -1250.1187    6171.1016    5844.7111    12015.813   -477.62009    252.46833   -225.15176    1998.8279    3481.8938    915.53163            0    6396.2534   -36.851475    17551.926    15196.785 
  153000    1018.9381    21641.814    1.0000083    22681.095    19293.973    22950.374   -3337.5371    1954.5788   -4109.9905    6354.1581    5989.4787    12343.637    -472.3441    289.08336   -183.26074    2057.2033    3550.5321    929.68354            0    6537.4188   -36.851475    17140.102    15196.785 
  154000    998.24706    28714.704    1.0000083    30778.295    29056.421    26309.397    8147.6813    1073.3534    1176.7521    6108.2633    5867.8534    11976.117   -404.70504    95.127963   -309.57708    2016.8797    3470.8641    930.09652            0    6417.8403   -36.851475    18340.143    15196.785 
  155000    1019.1096    23397.741    1.0000083    20192.735    25603.657     24396.83    -3847.996    2336.3758   -1976.9586    6253.8829    5990.4867     12244.37   -479.96159    358.82556   -121.13603    1987.6322    3440.0477    947.33905            0    6375.0189   -36.851475        17430    15196.785 
  156000    1012.0464     21141.88    1.0000083    16206.266    20113.482    27105.892   -1631.6543   -3389.0128    466.98752    5821.5348    5948.9679    11770.503   -481.66426    30.196133   -451.46813     2004.199    3331.3529    937.45112            0     6273.003   -36.851475    16456.167    15196.785 
  157000    1003.5697    25405.386    1.0000083    24681.759    33549.238     17985.16   -116.12856    4611.2868    222.97813     6080.165    5899.1408    11979.306   -530.29661    283.42159   -246.87502    1978.5494    3421.5411    926.94945            0      6327.04   -36.851475    17609.889    15196.785 
  158000    978.60708    29553.911    1.0000083    26793.645    28064.737    33803.351   -2158.3656   -1548.6567   -1093.9442    6092.9219    5752.4064    11845.328    -494.9762    283.97271   -211.00349     1924.011    3445.9186     933.9957            0    6303.9254   -36.851475    18395.347    15196.785 
  159000    1005.1139    24639.668    1.0000083    23300.757    24600.565    26017.682   -5452.8422   -2149.0245    -5519.249    6432.2516    5908.2176    12340.469   -484.74479    538.08088    53.336092    1976.7168      3450.59    951.60865            0    6378.9155   -36.851475    17801.347    15196.785 
  160000    977.78099    28820.697    1.0000083    24700.534    28353.859    33407.697   -1731.6102   -4173.5066   -2004.1686     6264.561    5747.5506    12012.112    -429.5561    393.19362   -36.362474    2064.9992    3241.5737    994.35054            0    6300.9234   -36.851475    18399.629    15196.785 
  161000    990.15424    29096.068    1.0000083    27476.122    30805.537    29006.544    4964.5288   -489.12948    625.31252    6417.8033    5820.2825    12238.086    -354.3907    379.58737    25.196666    1991.2572    3460.4045     940.9449            0    6392.6067   -36.851475    18686.633    15196.785 
  162000     1016.775    26229.405    1.0000083    31537.468    24825.179     22325.57    676.58612   -4042.1314   -2281.8005    6335.7648    5976.7637    12312.529   -395.04063    388.33474   -6.7058918    1951.4626    3446.9495    944.05868            0    6342.4707   -36.851475    18125.739    15196.785 
  163000    992.84333    25899.237    1.0000083     27327.61    27310.469    23059.631   -4752.0949    2685.4363    -3905.527    6090.3561    5836.0894    11926.445   -535.04471    224.29288   -310.75184    2091.1021    3372.7969    937.20891            0    6401.1079   -36.851475    17666.481    15196.785 
  164000    1010.2311    24436.702    1.0000083    27122.807    25040.982    21146.317    3120.6755     262.6232    2778.0351    6049.1245    5938.2973    11987.422   -485.85065     107.4993   -378.35135    2095.8911    3400.5242    931.06056            0    6427.4759   -36.851475    17403.316    15196.785 
  165000    986.05343    31805.016    1.0000083     31188.36    33390.398    30836.289   -2257.8331    1390.8602   -2673.1331    6209.5351    5796.1773    12005.712   -428.53734    299.95098   -128.58636     1995.203    3406.0036    936.91488            0    6338.1215   -36.851475    19054.643    15196.785 
  166000    989.59942    28951.973    1.0000083     31765.18    26677.374    28413.365    394.66886    585.67435    2811.4473    6082.1539    5817.0212    11899.175   -460.04149    208.20909    -251.8324    1940.4748    3461.8588    931.65265            0    6333.9863   -36.851475    18315.787    15196.785 
  167000    1010.2604    29159.815    1.0000083    30509.783    29173.815    27795.847    1460.9137   -1889.6355   -3570.7371    6196.4168    5938.4698    12134.887   -395.97223    206.81134   -189.16089    2065.6568    3385.4536    934.46726            0    6385.5776   -36.851475    18597.562    15196.785 
  168000     1005.159    33066.524    1.0000083    38039.883    33395.399    27764.289   -1226.4258    2584.0421    675.93285    5942.1518    5908.4826    11850.634   -446.40223    214.18151   -232.22072    1889.2831    3345.8591    939.23033            0    6174.3725   -36.851475    19179.152    15196.785 
  169000    990.89854    22432.828    1.0000083    17915.717    22699.269    26683.499   -1263.5037    2344.6548    -724.2567    6123.8637    5824.6576    11948.521    -440.5341    133.11598   -307.41812    2029.5274    3466.9071    934.84731            0    6431.2818   -36.851475    16920.298    15196.785 
  170000      994.778    30274.763    1.0000083    33238.181    30824.008    26762.102   -2966.0828    518.85261   -1760.0906    6274.8195    5847.4617    12122.281   -458.25291     300.3419   -157.91101    1990.5322    3491.9923    950.20604            0    6432.7305   -36.851475    18832.062    15196.785 
  171000    1037.1551    27060.711    1.0000083    27616.784    28592.191    24973.159   -997.62693   -490.41635   -954.75886    6370.6568    6096.5611    12467.218   -455.69824    364.01078   -91.687464     2060.639    3477.8658    923.83945            0    6462.3443   -36.851475     18464.67    15196.785 
  172000    1020.1017     27319.57    1.0000083    26275.609    23724.156    31958.945   -5954.2404    4532.2174   -365.10593     6225.961    5996.3181    12222.279   -479.27389    427.20029   -52.073603    1958.0139    3406.2497    913.77106            0    6278.0346   -36.851475    18277.102    15196.785 
  173000    1004.3743     23473.71    1.0000083    28175.425    23631.695    18614.011    306.70661    3086.1961   -1602.9912    6371.3984    5903.8703    12275.269   -452.13654    391.05994   -61.076595    2027.7312     3458.421    946.32276            0     6432.475   -36.851475    17477.736    15196.785 
  174000    1027.6861    27945.341    1.0000083    25951.429    31475.449    26409.146   -2725.8004    683.75659   -385.28949     6184.852    6040.9005    12225.752   -486.48187    297.96251   -188.51935    2050.6098    3413.4048    909.35676            0    6373.3713   -36.851475    18419.265    15196.785 
  175000    1012.0765    26635.391    1.0000083    20928.512    28716.703    30260.957    3795.0091      -3387.2   -3858.4325    5843.2723    5949.1449    11792.417   -494.24622    183.79886   -310.44736    1994.9161    3227.1965    931.60698            0    6153.7197   -36.851475    17695.606    15196.785 
  176000    1008.1724    31589.855    1.0000083    35770.976    34214.848    24783.742   -1019.8377    1955.3831    2302.0413    6559.7426     5926.196    12485.939   -368.46976    358.14078   -10.328976    2089.9271    3533.4856    946.65892            0    6570.0716   -36.851475    19487.183    15196.785 
  177000    993.16116    30659.124    1.0000083     31496.85    32429.411    28051.111    598.08136    5548.5131    6563.3168    6278.9397    5837.9576    12116.897   -416.70091    306.66091      -110.04    2021.1312    3420.5518     947.2967            0    6388.9797   -36.851475    18911.864    15196.785 
  178000    984.04449    24431.741    1.0000083     26887.99    25125.828    21281.405   -2661.7681   -19.784252    5000.8183    6056.8843    5784.3684    11841.253   -408.74404    285.61576   -123.12828    1931.0826    3315.6807    933.24919            0    6180.0125   -36.851475    17256.048    15196.785 
  179000    999.60584     26583.33    1.0000083    29648.464    23484.801    26616.725    3203.6074   -377.77812    2298.4986    6031.4501    5875.8405    11907.291   -457.42981    274.23359   -183.19622    2050.2132    3240.3234    924.10965            0    6214.6463   -36.851475    17798.941    15196.785 
  180000    1013.7697    26965.625    1.0000083    27162.341    29188.162    24546.372   -6928.4305     1870.988   -1218.7697    6335.9333    5959.0981    12295.031   -360.14912    197.42681   -162.72232    2055.9764    3489.0286    953.65057            0    6498.6556   -36.851475     18271.41    15196.785 
  181000    998.29188    26977.466    1.0000083     25340.82    28864.491    26727.086    3677.9432    3795.8414    1233.2364    6389.7229    5868.1168     12257.84   -444.43908     472.3429    27.903813    1933.9815    3469.5307    958.30687            0    6361.8191   -36.851475    18236.843    15196.785 
  182000    964.82429    25582.132    1.0000083    25947.342      28810.9    21988.155    2048.2244    1191.7769    3595.0992    6200.2256    5671.3891    11871.615   -427.70957    212.85365   -214.85592    2076.6063    3402.0787    936.39642            0    6415.0815   -36.851475     17541.37    15196.785 
  183000    1012.2225    26864.602    1.0000083     26655.35     25498.63    28439.826   -429.37758    193.61929    4334.0512    6389.5121    5950.0032    12339.515    -411.8746    336.94881   -74.925785    2021.0785    3509.1523    934.20715            0    6464.4379   -36.851475    18293.504    15196.785 
  184000    1009.6197    25691.261    1.0000083    29781.897    22120.099    25171.788   -502.86157    1294.9123   -1304.3989    6139.9012    5934.7036    12074.605   -444.43172    295.13147   -149.30025    1900.9913     3396.114    992.09605            0    6289.2014   -36.851475    17768.547    15196.785 
  185000    995.56154    30773.502    1.0000083    26829.791    28947.193    36543.524    5076.2835    59.438006   -1569.6251    6213.8158    5852.0674    12065.883   -448.17602    337.16524   -111.01078    1908.9445    3493.8176    922.06449            0    6324.8266   -36.851475      18886.2    15196.785 
  186000    1002.1198    26375.016    1.0000083    27919.911    32219.979    18985.157   -481.77742   -821.03872   -8738.5712    6408.7497     5890.618    12299.368    -344.2425    306.47556   -37.766947      2105.12    3408.0831    933.31356            0    6446.5167   -36.851475     18144.85    15196.785 
  187000    1005.7587    28648.044    1.0000083    29999.885    31362.026    24582.222    1417.0713     1813.468   -951.61375    6031.0806    5912.0082    11943.089   -446.88135    360.96628    -85.91507    1918.7253    3254.0232    944.24727            0    6116.9957   -36.851475    18292.341    15196.785 
  188000    987.25579    27677.354    1.0000083    25085.977    24453.347    33492.738    790.38963    770.29669    -489.7373    6410.4371    5803.2449    12213.682   -467.79813    433.90316   -33.894976    2042.9495    3450.4491    950.93352            0     6444.332   -36.851475    18347.801    15196.785 
  189000    1021.9784    27677.514    1.0000083    28382.641    29643.431    25006.469    2099.8578    2172.2418   -126.94198    6063.4501    6007.3501      12070.8   -516.44449     270.0209   -246.42359     1936.414    3452.9672    920.49256            0    6309.8737   -36.851475    18204.954    15196.785 
  190000    999.99013     22685.46    1.0000083    22755.347    22672.807    22628.226   -1260.8826    2512.8803   -680.69839    5903.3179    5878.0994    11781.417   -551.25213    229.34893    -321.9032    1904.8972    3373.2128    947.11111            0    6225.2211   -36.851475    16809.185    15196.785 
  191000    1027.2481    26846.578    1.0000083    23211.806    31684.181    25643.748    723.68662   -6940.9486    699.22839    5992.9057    6038.3261    12031.232   -500.75505    250.50189   -250.25316    1958.7957    3354.9218    929.44133            0    6243.1588   -36.851475    17981.226    15196.785 
  192000    1001.4088    26406.725    1.0000083    32868.729    22883.104    23468.342    2471.4729    1285.5987   -1492.5799    6488.9274    5886.4385    12375.366    -399.4361    381.82152   -17.614575    2133.8607     3400.435    972.24632            0     6506.542   -36.851475    18227.876    15196.785 
  193000    966.00797    26071.337    1.0000083    25876.016    27608.042    24729.953    1480.7646    1098.5573    474.10465    6155.0168    5678.3469    11833.364   -435.38787    314.23957   -121.14831    1964.0457    3401.6192     910.5002            0    6276.1651   -36.851475    17611.542    15196.785 
  194000    1013.9662    24443.112    1.0000083    26398.995    21139.767    25790.574   -1184.5882    3148.7654       1912.8    5967.4729    5960.2532    11927.726   -461.74337    199.44789   -262.29548    1926.2343    3368.1029    935.43112            0    6229.7683   -36.851475    17345.041    15196.785 
  195000    997.58277    29807.568    1.0000083    32570.064    34665.629    22187.011   -445.74606     1133.508    1958.2665    6036.4495    5863.9486    11900.398   -406.32374    123.43997   -282.88377    1997.9141    3356.6101     964.8091            0    6319.3332   -36.851475    18506.635    15196.785 
  196000     974.0081    21329.844    1.0000083    20867.642    18819.517    24302.375     2069.642   -703.67767   -1432.1195    6133.1998     5725.373    11858.573   -428.33606    276.03163   -152.30443    2075.2189    3269.6544    940.63092            0    6285.5042   -36.851475    16585.896    15196.785 
  197000    1002.6225    25404.864    1.0000083    25033.717    26446.561    24734.314   -62.057742    448.77501    2764.9007    5785.9136     5893.573    11679.487   -499.53872    16.782597   -482.75612    2017.4628      3320.39    930.81683            0    6268.6697   -36.851475    17309.954    15196.785 
  198000    985.56328    27616.415    1.0000083    28391.657    34497.149     19960.44   -1309.6245    6992.4593   -375.92777    6091.1063    5793.2961    11884.402    -430.9888    107.00845   -323.98035    2077.6803    3394.6155    942.79086            0    6415.0867   -36.851475    18005.015    15196.785 
  199000    999.64747    26027.475    1.0000083    29329.499    21582.001    27170.924   -1574.1785   -1706.5248    1143.7358    6105.9597    5876.0852    11982.045   -433.28849    203.11983   -230.16866    1971.5998    3436.2649    928.26364            0    6336.1284   -36.851475    17750.502    15196.785 
  200000    1024.6101    28637.054    1.0000083    31030.027    29251.126    25630.009   -1541.8463    3513.2721   -508.17924    6068.1759    6022.8194    12090.995   -454.94704    268.94114    -186.0059    2043.4762    3273.4239    937.28162            0    6254.1818   -36.851475    18437.812    15196.785 
  201000    998.46925     26527.73    1.0000083    24219.381    27151.043    28212.766    378.70838   -3106.7871    4426.4253    5952.0042    5869.1594    11821.164    -535.1404    89.553662   -445.58674    1978.1983    3438.5661    980.82663            0     6397.591   -36.851475    17700.492    15196.785 
  202000    1002.7307    21987.726    1.0000083    15857.431    25682.462    24423.284   -1277.8113    566.23068    376.48044    6334.2721    5894.2087    12228.481   -455.55677    367.43281   -88.123958    2076.1389    3396.6974    949.55979            0     6422.396   -36.851475     17101.61    15196.785 
  203000    1010.6785      26922.7    1.0000083    29275.948    25112.442    26379.711   -1250.0746   -2203.0798    4667.5197    6342.1739    5940.9275    12283.101   -419.91762    358.56039   -61.357232    2067.4393    3398.0891    938.00266            0    6403.5311   -36.851475    18249.967    15196.785 
  204000    1012.5112    27170.612    1.0000083    23312.447    28614.605    29584.783    1013.8039   -2909.4107   -1939.2083    5861.5823    5951.7004    11813.283   -443.27486    140.80671   -302.46814    2042.9916    3209.3676    911.69127            0    6164.0505   -36.851475    17835.092    15196.785 
  205000    1020.3114    25280.154    1.0000083    25421.017    23054.557    27364.886    2148.1174    -2005.707    5080.3087    6217.3367    5997.5508    12214.887   -419.06613    196.58227   -222.48385     1994.838    3518.5791    926.40352            0    6439.8206   -36.851475    17817.716    15196.785 
  206000    1001.1797    24939.051    1.0000083    23960.127    26180.357    24676.668   -1922.4483   -498.92146   -3000.9545    6155.0615    5885.0922    12040.154    -492.1324    379.60553   -112.52687    2006.2996    3308.6633     952.6255            0    6267.5884   -36.851475    17567.384    15196.785 
  207000    962.60482    24593.202    1.0000083    26303.963    24930.279    22545.364    2307.2371    5181.6337    1775.0732    6071.4076    5658.3427     11729.75   -453.21526    241.52405   -211.69122    1971.1251    3363.8293    948.14439            0    6283.0988   -36.851475     17180.33    15196.785 
  208000    1030.2981    27505.291    1.0000083    27317.201    27777.273    27421.399    66.526756    -6659.831    165.65673    6142.1181    6056.2542    12198.372   -459.54593    354.62388   -104.92205    2034.7232    3295.7833    916.53363            0    6247.0401   -36.851475    18294.357    15196.785 
  209000     985.6911    23961.791    1.0000083    23793.826    23095.979    24995.568    757.38193   -2899.9713   -1629.0544    5861.2797    5794.0474    11655.327   -513.96914    184.91821   -329.05092    1918.1262     3316.229    955.97547            0    6190.3306   -36.851475    16965.967    15196.785 
  210000    1024.8742    28026.023    1.0000083    26929.472    26935.742    30212.856   -3949.0836   -2390.9361      -1179.2     6136.674    6024.3719    12161.046   -456.04737    323.70113   -132.34624    2017.0384    3312.8096    939.17219            0    6269.0202   -36.851475     18372.44    15196.785 
  211000    964.14623    19761.895    1.0000083    15563.013    19255.289    24467.382   -1144.3042    1066.1184    1381.2275    6106.5428    5667.4033    11773.946   -506.02928    229.56105   -276.46823    2045.2151    3394.5648    943.23103            0     6383.011   -36.851475    16153.765    15196.785 
  212000    1017.6088    28422.161    1.0000083    20953.801    32845.179    31467.503   -122.21405    4000.5197   -2947.9358     6018.792    5981.6649    12000.457   -426.95643    232.46961   -194.48682    1975.5816    3289.9572       947.74            0    6213.2789   -36.851475    18299.647    15196.785 
  213000    1019.8969    30926.167    1.0000083    29663.414    32887.288    30227.798    484.27666    -1975.799    932.07483    6163.4002    5995.1146    12158.515   -410.34575     314.4335   -95.912252    2003.6334    3337.4105    918.26851            0    6259.3124   -36.851475    19012.666    15196.785 
  214000    980.62856    25225.013    1.0000083    22185.913     27309.32    26179.805     -419.148    2075.0262   -307.42662    6291.8855     5764.289    12056.175   -459.65701    385.76685   -73.890158    2019.5597    3409.3544    936.86165            0    6365.7757   -36.851475    17646.782    15196.785 
  215000    984.69364    25612.338    1.0000083    31455.225    24970.564    20411.226    2617.0538    719.28013    2727.3904    6217.1447    5788.1842    12005.329   -452.80961    219.20628   -233.60333    1984.7626    3538.0437    927.94178            0    6450.7481   -36.851475    17681.779    15196.785 
  216000    1007.5402    26973.572    1.0000083    27220.234      25424.4    28276.082    1877.1177   -421.18733    1541.9721    6071.3597    5922.4798    11993.839   -438.95682    248.20394   -190.75288    2030.1393    3262.3924    969.58092            0    6262.1126   -36.851475    17971.979    15196.785 
[...]
 1942000    376.34044    1897.8103   0.78525136    1890.4426    2963.8428    839.14535   -510.32477   -1043.7275    2384.7953    2719.4215    2212.1884    4931.6099   -699.30348    599.85059   -99.452888    790.71489    1359.4933    668.66616            0    2818.8744   -28.937429    5467.2527    19352.927 
 1943000    376.95281   -732.35694   0.78525136    707.55871   -367.77493   -2536.8546    1532.0376    1164.6526   -2109.1055    2645.8777     2215.788    4861.6656   -690.99835    499.36122   -191.63712    786.52926     1342.317    708.66856            0    2837.5148   -28.937429    4654.9633    19352.927 
 1944000    378.90691   -438.85624   0.78525136     552.6978   -4762.4608    2893.1943   -42.214027   -742.46809   -409.40918     2659.589    2227.2745    4886.8635   -686.83479    574.56255   -112.27224     767.2417    1319.2706      685.349            0    2771.8613   -28.937429    4762.9996    19352.927 
 1945000    366.78771    1198.8358   0.78525136    819.92585     1881.647    894.93461    83.605141   -1468.6729    281.56687    2603.5928    2156.0359    4759.6287   -703.42665    598.74351   -104.68313    774.56688    1242.3707     691.3384            0    2708.2759   -28.937429    5097.9912    19352.927 
 1946000      373.419    520.68149   0.78525136   -240.96837    1393.0111    410.00175   -92.005345   -2489.2511    1244.6219    2725.5107    2195.0157    4920.5264    -696.8875    620.22878   -76.658719    779.83605    1321.8529    700.48055            0    2802.1695   -28.937429    5067.4849    19352.927 
 1947000    375.57617    2192.2964   0.78525136    2660.4054    855.74182     3060.742    44.204745    1048.3507    1781.8214    2557.9554    2207.6958    4765.6512   -723.19562    487.26117   -235.93445    768.06985     1313.499    712.32101            0    2793.8898   -28.937429    5384.4106    19352.927 
 1948000    364.33774    548.50322   0.78525136   -124.86399    981.70023    788.67342    1167.0595    1608.6393    1706.4774    2406.3355    2141.6346    4547.9701   -697.96631    354.25706   -343.70925    763.73805    1299.7857    686.52096            0    2750.0447   -28.937429     4702.781    19352.927 
 1949000    370.32822   -1693.6904   0.78525136   -1325.9104   -3150.9042   -604.25669   -330.61962     1356.587    1240.1559    2426.0831    2176.8476    4602.9307   -679.83474    285.86725   -393.96749    809.10821    1316.7969    694.14556            0    2820.0506   -28.937429    4124.8992    19352.927 
 1950000    368.87268   -955.25191   0.78525136   -3433.6419    437.39132    130.49483   -600.24101   -1839.5174     866.8622    2448.2094    2168.2917    4616.5011   -686.31263    351.96666   -334.34598    775.92833    1295.9536    710.67344            0    2782.5554   -28.937429    4346.8883    19352.927 
 1951000    375.07217   -937.97973   0.78525136   -2077.0572    -1522.649    785.76701   -1710.9136   -933.01887   -816.59015    2493.8144    2204.7333    4698.5477   -706.08921    347.44352    -358.6457    829.49249    1330.1495    692.81813            0    2852.4601   -28.937429    4433.8098    19352.927 
 1952000    377.78471   -2501.7826   0.78525136   -4548.0376   -930.40951   -2026.9007   -1117.0133    1460.7326    748.10938     2536.018     2220.678     4756.696   -701.98172    433.46325   -268.51847     813.0604    1294.7659    696.71024            0    2804.5365   -28.937429    4050.5865    19352.927 
 1953000    368.94827   -3.1435951   0.78525136    535.49675    349.95507   -894.88261    110.00212    1180.7835     842.9609    2548.6212     2168.736    4717.3572    -684.9608    446.01522   -238.94558    786.03998    1309.2939    692.23284            0    2787.5668   -28.937429    4716.4699    19352.927 
 1954000    374.87589   -1219.5378   0.78525136   -2049.5505    777.16085   -2386.2237    507.38986   -227.99543   -1000.7917    2391.1385    2203.5795     4594.718   -685.62653    393.44995   -292.17657    723.87571    1270.0414    689.39795            0     2683.315   -28.937429    4250.5125    19352.927 
 1955000    374.59968   -1019.1507   0.78525136   -587.20973   -4133.6309    1663.3886   -2731.6893    135.82176    -1820.505    2356.8063    2201.9559    4558.7622   -702.02997    285.87506   -416.15491    780.67115    1299.1085     693.1816            0    2772.9612   -28.937429    4271.1145    19352.927 
 1956000    377.68525    2105.7202   0.78525136    2196.0406    1348.1434    2772.9766   -433.22211    694.29394    1569.9622    2518.1052    2220.0934    4738.1986   -668.84305    395.98885    -272.8542    783.33818    1314.3512    693.27008            0    2790.9594   -28.937429    5332.5225    19352.927 
 1957000    377.09882   -2198.9485   0.78525136   -1074.3158   -1047.0608    -4475.469    1192.3286    824.01037    312.93645    2530.1885    2216.6462    4746.8347   -706.90113    472.10268   -234.79844    788.20898    1266.8143    709.96362            0    2764.9869   -28.937429    4126.1978    19352.927 
 1958000    372.64813   -2170.2787   0.78525136     889.7325   -2946.6043   -4453.9641    -286.4517    1420.5864   -2541.6905    2501.6202    2190.4844    4692.1046   -712.15732    402.84335   -309.31396    792.58473    1319.0811    699.26838            0    2810.9342   -28.937429    4079.5596    19352.927 
 1959000    367.36857   -947.84308   0.78525136   -518.93397   -234.32183   -2090.2734    734.28614   -981.71131     1312.845    2742.7369    2159.4503    4902.1872   -700.76922    659.21726   -41.551966    788.77982     1298.486    697.02302            0    2784.2889   -28.937429    4634.6655    19352.927 
 1960000     373.2442    463.84978   0.78525136    649.57186   -147.61766    889.59514   -1023.7086    1830.7489   -38.005198    2572.3136    2193.9882    4766.3018   -716.29633    586.03992   -130.25642    712.53555    1290.2028    699.83173            0      2702.57   -28.937429      4897.22    19352.927 
 1961000    366.27992    -415.2889   0.78525136   -3704.3573    1240.9508    1217.5398     1801.781    612.66044   -253.31605    2619.6979     2153.051    4772.7489   -694.46991    549.90099   -144.56892    822.87351    1245.6264    695.76687            0    2764.2668   -28.937429    4655.5367    19352.927 
 1962000    361.41468    703.78168   0.78525136    463.72582    702.46974    945.14947    671.97744   -1451.6881    2177.1074    2622.3116    2124.4524     4746.764   -665.78114     561.6628   -104.11834    732.78503    1275.7026     717.9423            0    2726.4299   -28.937429    4945.4011    19352.927 
 1963000    367.84464    546.63254   0.78525136    229.54252    1632.6152   -222.26009    25.312845    94.803002   -2206.9508    2435.3559    2162.2487    4597.6046   -701.25035    449.00874   -252.24161    749.92629    1236.1378    701.53347            0    2687.5975   -28.937429    4751.8876    19352.927 
 1964000    366.15538    1344.7622   0.78525136    1637.4531    1557.5678    839.26564     2513.909   -206.22219   -1975.4467    2409.5634     2152.319    4561.8823   -690.47553    307.64214   -382.83339    778.24651    1324.7101    689.44015            0    2792.3968   -28.937429    4941.4315    19352.927 
 1965000    371.59113    2760.6991   0.78525136    2799.9682    2864.4424    2617.6867    -1785.636   -1975.4581   -779.11974    2466.2892    2184.2712    4650.5603   -666.13426    399.44002   -266.69425    762.98681    1275.9628    694.03377            0    2732.9834   -28.937429    5429.7472    19352.927 
 1966000    385.81468   -66.405904   0.78525136   -321.48699     2613.818   -2491.5487    604.72789    1621.2237   -2269.4988     2609.523    2267.8794    4877.4024   -716.82686    611.87471   -104.95216    791.00901      1248.06    675.40612            0    2714.4752   -28.937429    4858.6599    19352.927 
 1967000    378.72945    582.44996   0.78525136   -534.14108    652.54223    1628.9487   -2665.7816    674.89062   -255.32849    2672.4108    2226.2313    4898.6421   -683.56331    515.47544   -168.08787    764.22046    1385.6544    690.62379            0    2840.4987   -28.937429    5063.0343    19352.927 
 1968000     372.9922    177.43116   0.78525136    208.72994   -1352.2285    1675.7921    -407.5358   -2220.2811   -451.84912    2624.8216    2192.5069    4817.3285   -687.47314    488.28897   -199.18417    806.26956    1316.7467    700.98954            0    2824.0058   -28.937429    4867.4071    19352.927 
 1969000     376.0637   -259.48086   0.78525136    2241.1587    2006.7789   -5026.3802   -655.86207    656.06905   -715.21428    2641.1164    2210.5616    4851.6781    -708.5693    546.98743   -161.58188    776.69713    1297.3077    728.69353            0    2802.6983   -28.937429    4778.4415    19352.927 
 1970000     374.6975   -1314.0314   0.78525136    225.63983    780.82106    -4948.555    1683.7747   -755.56655    83.744268    2788.3385    2202.5309    4990.8694   -723.83909    672.32126   -51.517832      792.662      1336.94    710.25438            0    2839.8564   -28.937429    4619.9938    19352.927 
 1971000    374.54775   -1281.6295   0.78525136   -1961.1943   -708.59022   -1175.1039   -1221.2687    137.88853   -2082.8669    2555.6815    2201.6506    4757.3321   -716.55956     513.2733   -203.28625    755.66063    1294.6861    708.62099            0    2758.9678   -28.937429    4395.6017    19352.927 
 1972000    368.29351   -515.38349   0.78525136   -957.41792   -1382.9173    794.18475   -888.79276    3.0812709   -998.79413     2449.039    2164.8873    4613.9263    -693.3269    391.12694   -302.19996    791.21323    1264.0518    695.97396            0     2751.239   -28.937429    4468.4631    19352.927 
 1973000    379.20881   -1580.4067   0.78525136   -1370.0736   -4095.8488    724.70212    484.97287    -1277.784    1605.7892     2517.823    2229.0491    4746.8721   -697.25626     466.3528   -230.90346    785.76608    1256.9735    705.98694            0    2748.7265   -28.937429     4300.814    19352.927 
 1974000    371.36624    1831.4162   0.78525136    -520.7041    2958.9322    3056.0203   -786.66964    2039.5658    340.74889    2516.9018    2182.9492     4699.851   -713.72217    424.71147   -289.01071     778.7907    1311.6515    715.47026            0    2805.9125   -28.937429    5216.7546    19352.927 
 1975000    372.51416   -1125.6883   0.78525136   -195.09933   -800.17084   -2381.7947    515.85578    334.99041   -300.67902    2546.6188    2189.6969    4736.3157   -721.52903     450.8446   -270.68443    806.23837    1285.2225    725.84232            0    2817.3032   -28.937429    4418.5985    19352.927 
 1976000    376.48956   -1422.9889   0.78525136   -1851.3144    548.51334   -2966.1656     1392.726   -1673.4617    165.36763    2691.4074    2213.0649    4904.4723   -690.12286    506.41227   -183.71059    792.46582    1373.2136    709.43855            0     2875.118   -28.937429    4502.8442    19352.927 
 1977000    377.47077   -517.34763   0.78525136   -912.58693    1200.6833   -1840.1392    1123.5971    392.04102   -1667.3283    2525.0671    2218.8326    4743.8997   -692.92259     469.5264   -223.39619    782.76208     1266.742     698.9592            0    2748.4633   -28.937429    4597.8822    19352.927 
 1978000    367.91031    220.52495   0.78525136    107.98196   -1506.9696    2060.5625    1443.0858   -546.15806    2538.2859    2480.6477    2162.6347    4643.2824    -717.2458    332.31835   -384.92746    835.59475    1319.2403     710.7401            0    2865.5751   -28.937429    4705.5239    19352.927 
 1979000    368.71822   -572.36609   0.78525136   -284.92483   -1335.7635   -96.409904    1831.2047    182.96534    2276.1306    2718.7731    2167.3838    4886.1569   -689.62047    480.75169   -208.86879    829.25229    1390.4931    707.89655            0    2927.6419   -28.937429    4724.6108    19352.927 
 1980000    371.20529   -139.63671   0.78525136    336.03188    1527.2034   -2282.1455   -1280.4928    -1213.939    2026.0609     2635.278    2182.0031    4817.2811   -693.13826     491.3956   -201.74266    774.29639    1341.5234    721.20088            0    2837.0206   -28.937429    4777.8697    19352.927 
 1981000    356.98199   -1466.6535   0.78525136    107.09209   -2055.9212   -2451.1315    1035.8908    -1580.256    1346.6584    2450.9578    2098.3963    4549.3541    -698.0909    339.61198   -358.47891    821.07886    1283.6694    704.68841            0    2809.4367   -28.937429     4135.402    19352.927 
 1982000    366.14363   -879.50157   0.78525136    1126.4761   -839.20202   -2925.7788   -507.25781   -1240.8979    -804.3764    2669.5532    2152.2499    4821.8031   -721.13319    617.10775   -104.02544     726.6703    1334.7685    712.13979            0    2773.5786   -28.937429    4573.5703    19352.927 
 1983000    373.61632   -496.65159   0.78525136    307.10745   -319.21451   -1477.8477    465.67347      372.159   -278.04448    2475.4536    2196.1756    4671.6292   -714.70753    447.33583    -267.3717    766.16927    1264.4632    712.19283            0    2742.8253   -28.937429     4531.453    19352.927 
 1984000    378.51846     365.8816   0.78525136    -307.2165    1753.0991   -348.23776    2912.5478    328.55733    87.592725    2717.6711    2224.9911    4942.6622   -692.78487    624.11737     -68.6675    779.48926    1285.2902    721.55918            0    2786.3386   -28.937429    5045.9296    19352.927 
 1985000    369.27378   -1023.8954   0.78525136   -954.56396   -601.06316   -1516.0591    436.82533    1895.3736   -1582.9845    2421.9861    2170.6494    4592.6355   -703.80978    335.80771   -368.00207    776.24598    1287.6598    726.08234            0    2789.9881   -28.937429    4303.6486    19352.927 
 1986000    377.24149    613.51372   0.78525136    716.91006   -565.77218    1689.4033    2578.3201   -329.90911   -1705.4306    2588.0573    2217.4849    4805.5422   -718.54107    477.00504   -241.53603    776.69584    1344.9867    707.91076            0    2829.5933   -28.937429    4978.7019    19352.927 
 1987000    369.29498    384.64369   0.78525136    606.27464    2429.5619   -1881.9055    944.30355    1458.0726    -1615.718    2522.8874     2170.774    4693.6614   -693.03837    357.70406   -335.33431    821.30924    1335.0173    701.89517            0    2858.2217   -28.937429    4802.2243    19352.927 
 1988000    366.65961   -1272.1769   0.78525136   -1179.4208   -3380.8092    743.69945   -75.308236   -326.89064   -2273.8987    2671.8799    2155.2829    4827.1628   -701.58176    590.88774   -110.69402    748.75083    1331.8828    701.94033            0     2782.574   -28.937429    4468.1004    19352.927 
 1989000    369.95535    628.52323   0.78525136    536.76223    466.08475    882.72271   -2526.5283   -1040.9128    1683.6241    2667.1581    2174.6558    4841.8139   -702.94129    553.93169    -149.0096    793.96565    1309.4264    712.77569            0    2816.1677   -28.937429    5019.2099    19352.927 
 1990000    373.72242    840.40393   0.78525136    -1582.772    4776.0186   -672.03482    149.33416    1584.4298   -1935.2211    2519.5838    2196.7992     4716.383   -698.34077    478.55469   -219.78608    762.22546    1286.5073    690.63714            0    2739.3699   -28.937429    4953.5808    19352.927 
 1991000    375.53992   -3321.7149   0.78525136   -1180.3463   -5524.9718   -3259.8267    1185.1358   -836.30256   -939.64331    2648.0565    2207.4827    4855.5393   -709.27402    551.80809   -157.46593    790.33836    1312.4916    702.69246            0    2805.5225   -28.937429    3918.0099    19352.927 
 1992000     367.0529   -1201.0875   0.78525136    467.97066   -480.79543   -3590.4377   -3576.0904   -363.66937    217.36346    2539.9567    2157.5947    4697.5514   -705.74533    471.86654   -233.87879    777.73555    1292.7848    703.31509            0    2773.8355   -28.937429    4358.5534    19352.927 
 1993000    376.17317    322.53569   0.78525136    441.15508   -1733.0594    2259.5114   -720.82083   -2390.3452    2160.7343    2398.4982    2211.2051    4609.7033   -702.73203    364.74573    -337.9863    755.09884    1274.7832     706.6024            0    2736.4845   -28.937429    4700.7366    19352.927 
 1994000    376.02301    310.81354   0.78525136   -782.42809    1617.3252    97.543501    915.18884    -1199.131   -1840.6245    2496.3797    2210.3224    4706.7022   -694.33546     435.3885   -258.94696    749.83991    1293.5701    711.91668            0    2755.3267   -28.937429     4794.427    19352.927 
 1995000    355.65511    -2680.883   0.78525136   -2337.8371   -2357.2224   -3347.5895   -2458.0052     751.4234    -433.2597    2521.2401    2090.5967    4611.8368   -702.27885    427.44419   -274.83466    780.73981    1295.1696    720.16532            0    2796.0747   -28.937429    3855.1774    19352.927 
 1996000    384.98077   -1220.8809   0.78525136    -3368.897   -1430.2697     1136.524    1006.3438   -241.08597   -76.162412    2486.2952    2262.9776    4749.2727   -704.78196    408.14374   -296.63822    740.67866    1319.0548    723.19988            0    2782.9334   -28.937429    4404.6882    19352.927 
 1997000    382.30696    730.80641   0.78525136    1870.4667     1325.633   -1003.6805    -1409.037    2266.5839    61.711163    2579.2293    2247.2605    4826.4898   -716.92872    512.80963   -204.11909    767.20136     1321.254    694.89298            0    2783.3484   -28.937429    5032.7545    19352.927 
 1998000    383.34751   -1574.0246   0.78525136   -131.60257   -3997.8606   -592.61069    8.0870358   -2766.1313   -1167.8034    2394.1421     2253.377    4647.5191   -717.12083    403.25938   -313.86145    769.57058    1250.2123    688.22064            0    2708.0035   -28.937429    4203.2623    19352.927 
 1999000    376.73784   -231.57847   0.78525136   -3947.6801    58.747593    3194.1971    430.56847    -446.8226    274.43524    2622.1496    2214.5243    4836.6739   -701.03297    523.64797     -177.385    785.64989    1305.3664    708.51828            0    2799.5346   -28.937429    4771.3126    19352.927 
 2000000    387.85057   -773.07363   0.78525136   -1098.5319    -1605.288    384.59897     358.8192    2133.8416   -677.01536    2439.6456    2279.8467    4719.4923   -696.50536    325.86332   -370.64205    813.07958    1286.7842    710.42383            0    2810.2877   -28.937429     4501.298    19352.927 
Loop time of 109.06 on 112 procs for 250000 steps with 1973 atoms

Performance: 198.056 ns/day, 0.121 hours/ns, 2292.309 timesteps/s
99.8% CPU use with 112 MPI tasks x no OpenMP threads

MPI task timing breakdown:
Section |  min time  |  avg time  |  max time  |%varavg| %total
---------------------------------------------------------------
Pair    | 21.838     | 35.402     | 59.702     | 142.6 | 32.46
Bond    | 1.8701     | 3.0095     | 5.3865     |  40.2 |  2.76
Neigh   | 4.2118     | 4.2506     | 4.2789     |   0.8 |  3.90
Comm    | 37.937     | 63.161     | 76.893     | 111.6 | 57.91
Output  | 0.030481   | 0.030595   | 0.030785   |   0.0 |  0.03
Modify  | 0.31956    | 0.39373    | 0.4858     |   5.4 |  0.36
Other   |            | 2.813      |            |       |  2.58

Nlocal:        17.6161 ave          28 max           6 min
Histogram: 1 3 8 10 23 34 14 11 6 2
Nghost:        3880.34 ave        3993 max        3724 min
Histogram: 2 5 7 11 15 21 11 13 20 7
Neighs:        10220.9 ave       17369 max        3529 min
Histogram: 1 5 15 19 21 23 10 10 3 5

Total # of neighbors = 1144737
Ave neighs/atom = 580.20122
Ave special neighs/atom = 11.797263
Neighbor list builds = 7823
Dangerous builds = 0
unfix           	NVE
unfix 				thermostat
unfix               thermo_print

# Output the state genearted that needed to shear the molecules
write_restart  		state_${fluid}_T${T}CP1atm.restart
write_restart  		state_BlendAA_T${T}CP1atm.restart
write_restart  		state_BlendAA_T100CP1atm.restart

################################# CALL TO START NEXT LOOP #######################################
clear
next            	fluid
jump 				in.eqm
Total wall time: 0:15:54
