ITEM: TIMESTEP
0
ITEM: NUMBER OF ATOMS
1973
ITEM: BOX BOUNDS pp pp pp
0.0000000000000000e+00 2.4769500000000001e+01
0.0000000000000000e+00 2.4769500000000001e+01
0.0000000000000000e+00 2.4769500000000001e+01
ITEM: ATOMS id mol type xu yu zu 
1 0 1 -2.80605 10.9699 9.84528 
2 0 2 -3.08415 12.4361 9.53297 
3 0 2 -3.4468 12.5857 8.06197 
4 0 2 -3.56394 14.045 7.68507 
5 0 2 -3.82951 14.2719 6.21013 
6 0 2 -4.0613 15.8545 5.95776 
7 0 2 -4.6216 16.1309 4.62238 
8 0 2 -5.52831 17.3475 4.12037 
9 0 3 -6.94179 16.7584 3.67254 
10 0 2 -1.20582 20.12 2.73295 
11 0 1 -5.86349 16.9915 2.37654 
12 0 4 -2.04266 10.4711 9.23288 
13 0 4 -3.69269 10.3567 9.68248 
14 0 4 -2.41617 10.8181 10.8541 
15 0 4 -3.86398 12.8687 10.1766 
16 0 4 -2.21619 13.0597 9.78984 
17 0 4 -2.70192 12.0734 7.42439 
18 0 4 -4.37754 12.052 7.83837 
19 0 4 -4.17623 14.5983 8.36729 
20 0 4 -2.73879 14.6645 8.01453 
21 0 4 -3.15963 13.6913 5.59372 
22 0 4 -4.64455 13.6374 5.82775 
23 0 4 -4.73254 16.3369 6.67438 
24 0 4 -3.22445 16.4328 6.27928 
25 0 4 -3.95452 15.7851 3.90567 
26 0 4 -5.1454 15.2899 4.35262 
27 0 4 -6.1817 17.8256 4.87986 
28 0 4 -5.25282 17.7651 5.1163 
29 0 4 -5.21735 19.3036 2.67744 
30 0 4 -2.26842 19.5172 3.00644 
31 0 4 -2.1867 19.4033 2.30668 
32 0 4 -5.25701 15.9977 2.19432 
33 0 4 -5.89941 16.7816 1.18729 
34 0 4 -6.81241 17.1382 1.82583 
35 0 1 1.1711 10.7933 10.2204 
36 0 2 0.808805 12.2043 9.89263 
37 0 2 0.0158353 12.3427 8.61098 
38 0 2 -0.32897 13.7899 8.33001 
39 0 2 -0.758714 14.1057 6.9627 
40 0 2 -0.818112 15.4596 6.3897 
41 0 2 -1.13838 15.2926 4.9066 
42 0 2 -1.23649 16.7146 4.32876 
43 0 3 -1.77403 15.8417 3.09484 
44 0 2 -0.888368 16.2885 2.08062 
45 0 4 1.81688 10.3841 9.40988 
46 0 4 0.254855 10.1995 10.3209 
47 0 4 1.76467 10.7984 11.1544 
48 0 4 0.334073 12.7975 10.6838 
49 0 4 1.79954 12.6097 9.94366 
50 0 4 0.350333 11.6999 7.78917 
51 0 4 -0.896574 11.8179 8.60648 
52 0 4 -0.903703 14.3456 9.06368 
53 0 4 0.569993 14.2654 8.59364 
54 0 4 0.0442926 14.0202 6.32502 
55 0 4 -1.44845 13.3874 6.52318 
56 0 4 -1.48236 16.084 6.96861 
57 0 4 0.11317 16.0429 6.38109 
58 0 4 -0.520125 14.542 4.32339 
59 0 4 -2.1205 14.8389 4.80234 
60 0 4 -1.76077 17.1322 5.14041 
61 0 4 -0.322311 17.2622 4.56035 
62 0 4 -2.65914 16.2694 2.79436 
63 0 4 0.105086 16.113 2.40296 
64 0 4 -1.06058 17.3131 2.03861 
65 0 1 -6.27261 11.3352 -5.48424 
66 0 2 -5.33025 11.1348 -4.4723 
67 0 2 -5.08019 12.5897 -4.17182 
68 0 2 -4.5609 12.4547 -2.80397 
69 0 2 -4.35892 13.7501 -2.16579 
70 0 2 -3.41048 13.6776 -1.02276 
71 0 2 -2.63293 14.8661 -0.854379 
72 0 2 -1.83318 14.7341 0.464666 
73 0 3 -1.0066 15.9422 0.687721 
74 0 2 0.184455 16.2741 -0.00185684 
75 0 4 -6.50806 10.4001 -5.91926 
76 0 4 -5.92841 11.8266 -6.31443 
77 0 4 -7.14546 11.927 -5.22642 
78 0 4 -5.78752 10.5526 -3.65838 
79 0 4 -4.46901 10.5781 -4.86311 
80 0 4 -4.37266 13.0255 -4.92562 
81 0 4 -5.97522 13.2348 -4.14179 
82 0 4 -5.00942 11.8088 -2.0709 
83 0 4 -3.7809 11.7068 -2.97996 
84 0 4 -4.32363 14.569 -2.87578 
85 0 4 -5.15854 14.4773 -2.03392 
86 0 4 -3.89966 13.3816 -0.115554 
87 0 4 -2.62979 12.9423 -0.894241 
88 0 4 -2.43455 15.7048 -1.55825 
89 0 4 -3.5198 15.4678 -0.921029 
90 0 4 -2.45722 14.5519 1.30892 
91 0 4 -1.17824 13.9094 0.644997 
92 0 4 -1.4194 16.6552 -0.0221496 
93 0 4 0.906377 16.3145 0.723555 
94 0 4 0.501021 17.3078 -0.287856 
95 0 1 -1.14287 6.67184 -5.5567 
96 0 2 -0.313862 7.39343 -4.54645 
97 0 2 -0.8202 8.82048 -4.42168 
98 0 2 0.142812 9.42102 -3.40778 
99 0 2 -0.158463 10.8115 -3.06694 
100 0 2 0.485598 11.6643 -1.94405 
101 0 2 0.155168 13.0415 -1.73525 
102 0 2 0.609291 13.9118 -0.707195 
103 0 3 0.228407 15.322 -1.08921 
104 0 2 1.22876 15.6888 -1.92755 
105 0 4 -0.80562 5.62524 -5.60023 
106 0 4 -1.05092 7.16634 -6.53746 
107 0 4 -2.19695 6.706 -5.21454 
108 0 4 -0.471205 6.85087 -3.6127 
109 0 4 0.777651 7.38212 -4.76249 
110 0 4 -0.71627 9.38399 -5.37479 
111 0 4 -1.88235 8.88013 -4.10641 
112 0 4 0.0881925 8.97281 -2.41155 
113 0 4 1.12049 9.42245 -3.92775 
114 0 4 -0.177386 11.1969 -4.08777 
115 0 4 -1.18073 10.5996 -2.81835 
116 0 4 0.337509 11.2856 -0.930927 
117 0 4 1.54736 11.8824 -2.01949 
118 0 4 0.224099 13.6184 -2.66177 
119 0 4 -0.766017 13.1426 -1.22095 
120 0 4 0.842528 13.818 0.336071 
121 0 4 1.59749 13.5948 -0.722231 
122 0 4 -0.655808 15.6467 -1.7371 
123 0 4 0.667567 16.7053 -2.04926 
124 0 4 0.855527 15.7307 -2.85875 
125 0 1 10.8941 10.1431 -3.70243 
126 0 2 9.48046 10.1388 -3.27985 
127 0 2 8.53217 11.2511 -3.69231 
128 0 2 7.20577 11.0617 -3.24281 
129 0 2 6.31135 12.169 -3.48034 
130 0 2 4.85561 12.2962 -3.34166 
131 0 2 4.45263 13.6988 -2.9966 
132 0 2 3.24186 14.0956 -2.24183 
133 0 3 2.63346 15.3502 -1.60768 
134 0 2 2.91161 16.0565 -0.303099 
135 0 4 11.4707 9.24296 -3.73364 
136 0 4 11.5628 10.9186 -3.35633 
137 0 4 10.8635 10.5692 -4.64566 
138 0 4 8.93526 9.28607 -3.56016 
139 0 4 9.43293 9.98562 -2.21532 
140 0 4 8.6459 12.3327 -3.56133 
141 0 4 8.60955 11.9042 -4.49403 
142 0 4 6.93864 10.063 -3.42068 
143 0 4 7.07801 10.808 -2.28244 
144 0 4 6.81423 13.0006 -3.21105 
145 0 4 6.16331 12.509 -4.38252 
146 0 4 4.06649 11.7425 -3.7466 
147 0 4 4.8881 11.3342 -2.96945 
148 0 4 5.33872 14.156 -2.61756 
149 0 4 4.55261 13.9909 -3.99915 
150 0 4 2.60863 13.3133 -2.47529 
151 0 4 3.38624 13.7736 -1.29718 
152 0 4 3.38117 15.8275 -1.93566 
153 0 4 2.33862 15.4736 0.362469 
154 0 4 2.67432 17.1471 -0.242664 
155 0 1 13.588 9.70518 -0.912025 
156 0 2 12.266 9.2516 -0.25063 
157 0 2 11.9622 10.5774 -0.248027 
158 0 2 8.52373 11.4102 -0.735129 
159 0 2 8.76295 12.3164 0.278928 
160 0 2 7.79397 11.7818 1.06964 
161 0 2 5.26435 14.7651 0.57034 
162 0 2 4.08221 14.2658 0.898389 
163 0 3 4.01427 15.8345 0.559572 
164 0 2 4.18946 16.6462 1.78156 
165 0 4 14.0637 8.82112 -0.510231 
166 0 4 14.0355 10.7287 -0.541176 
167 0 4 13.3517 9.83135 -1.96225 
168 0 4 11.3904 8.69469 -0.726006 
169 0 4 12.4313 9.4193 0.803636 
170 0 4 12.7558 12.2533 0.509259 
171 0 4 11.6006 10.5789 -1.38434 
172 0 4 8.0706 10.5061 -0.857883 
173 0 4 9.68216 11.2748 0.0370824 
174 0 4 9.18298 13.1882 0.0151886 
175 0 4 8.64137 12.5134 -0.718766 
176 0 4 6.85316 11.4352 0.726565 
177 0 4 7.05854 12.5123 1.4629 
178 0 4 5.61065 13.5817 1.01919 
179 0 4 5.77878 14.9908 -0.488637 
180 0 4 3.43244 13.5356 0.484725 
181 0 4 4.30513 14.1544 1.93878 
182 0 4 4.48977 16.4509 -0.295414 
183 0 4 3.24043 16.8812 2.0507 
184 0 4 4.1115 17.6012 1.43362 
185 0 1 12.0345 8.78176 5.0256 
186 0 2 10.7449 9.33947 5.62537 
187 0 2 10.5481 10.3233 4.4843 
188 0 2 9.06522 10.0674 4.55585 
189 0 2 9.58431 12.6003 2.86047 
190 0 2 8.36493 13.494 3.46846 
191 0 2 7.35146 14.3481 2.80597 
192 0 2 6.28957 15.3342 3.27358 
193 0 3 5.34749 16.4272 2.72567 
194 0 2 4.71952 17.2138 3.64564 
195 0 4 12.243 7.83216 5.5021 
196 0 4 12.8679 9.50703 4.99848 
197 0 4 12.0323 8.47282 3.96522 
198 0 4 9.84014 8.61537 5.75527 
199 0 4 10.6609 9.88263 6.57204 
200 0 4 11.1912 11.2326 4.40231 
201 0 4 10.653 9.96551 3.51527 
202 0 4 8.55015 10.2859 3.57604 
203 0 4 9.37404 11.0797 4.98126 
204 0 4 10.1636 12.531 3.71964 
205 0 4 9.20395 11.7099 2.57775 
206 0 4 7.73769 12.7941 3.06355 
207 0 4 8.15318 13.6479 4.84308 
208 0 4 8.25672 14.7103 2.75608 
209 0 4 8.65646 14.1771 3.5315 
210 0 4 5.5764 14.6318 3.23654 
211 0 4 6.60208 16.0301 4.02445 
212 0 4 6.17449 16.4773 2.16406 
213 0 4 8.11636 16.2223 5.15008 
214 0 4 5.29568 18.4256 3.88056 
215 0 1 4.49445 28.7152 -0.280256 
216 0 2 5.11342 27.4848 -0.534439 
217 0 2 5.70937 27.1268 0.76331 
218 0 2 5.87992 25.7233 0.649394 
219 0 2 5.67077 24.9948 1.7835 
220 0 2 5.6711 21.9892 1.71813 
221 0 2 6.44959 21.9208 2.93604 
222 0 2 7.03265 20.649 3.21724 
223 0 3 8.56434 21.5626 2.96072 
224 0 2 9.65387 20.7918 2.5187 
225 0 4 4.03854 29.2588 -1.09536 
226 0 4 5.45624 29.1551 0.018274 
227 0 4 3.79723 28.6125 0.600987 
228 0 4 4.10755 27.3956 -0.776869 
229 0 4 5.7501 27.67 -1.38889 
230 0 4 6.68349 27.6353 1.00226 
231 0 4 5.1341 27.5011 1.57627 
232 0 4 5.33314 24.992 0.183032 
233 0 4 6.72232 25.9219 0.00459458 
234 0 4 6.67533 24.4056 1.61399 
235 0 4 4.70589 24.4472 1.96427 
236 0 4 4.75348 21.6026 1.92594 
237 0 4 5.8948 23.6124 2.98114 
238 0 4 6.92054 22.5859 2.2666 
239 0 4 6.32928 21.9738 4.0357 
240 0 4 5.69861 20.2908 2.91509 
241 0 4 7.2416 20.494 2.15275 
242 0 4 7.9677 20.4838 3.78533 
243 0 4 9.49119 21.5558 1.78733 
244 0 4 9.15464 20.218 1.79255 
245 0 1 17.7565 12.1695 -0.626915 
246 0 2 16.3209 12.2685 -0.354395 
247 0 2 16.2627 13.7784 -0.0885045 
248 0 2 15.0079 13.7588 0.565069 
249 0 2 14.6019 15.188 0.929106 
250 0 2 13.2117 15.1016 1.22066 
251 0 2 12.3017 16.6066 1.19586 
252 0 2 11.6927 15.3051 1.07866 
253 0 3 8.75698 23.0908 2.85357 
254 0 2 13.0773 18.0338 4.0294 
255 0 4 18.0447 11.1295 -0.74155 
256 0 4 18.3414 12.6488 0.158748 
257 0 4 18.0123 12.8175 -1.47636 
258 0 4 15.6491 12.0236 -1.19765 
259 0 4 15.9506 11.6555 0.511436 
260 0 4 16.8494 14.2707 0.679868 
261 0 4 16.1626 14.4809 -0.930252 
262 0 4 14.352 13.3897 -0.208045 
263 0 4 14.6018 12.9995 1.26121 
264 0 4 15.023 15.9387 1.51558 
265 0 4 14.9293 16.0251 0.469678 
266 0 4 13.4541 15.0226 0.242854 
267 0 4 13.0855 14.0701 1.90554 
268 0 4 12.8592 17.0801 2.01591 
269 0 4 12.9887 17.0545 0.392421 
270 0 4 11.3168 16.5146 1.39105 
271 0 4 11.1224 16.2266 1.6839 
272 0 4 11.1952 20.3437 2.81099 
273 0 4 9.60341 16.7632 4.29021 
274 0 4 9.69427 21.5621 4.52549 
275 0 1 20.3431 12.9899 2.62083 
276 0 2 18.9037 12.636 2.78392 
277 0 2 18.2282 13.8959 2.97678 
278 0 2 16.8509 13.6246 3.15224 
279 0 2 16.3299 14.9149 3.40198 
280 0 2 15.0336 14.8402 3.62819 
281 0 2 14.7898 16.2518 3.98809 
282 0 2 13.6009 15.5033 3.91661 
283 0 3 12.2892 19.0336 5.21723 
284 0 2 12.5062 18.1944 6.40878 
285 0 4 20.8676 12.0675 2.39517 
286 0 4 20.7519 13.4429 3.53791 
287 0 4 20.5205 13.7287 1.82 
288 0 4 18.4118 12.137 1.96214 
289 0 4 18.638 12.0384 3.66463 
290 0 4 18.3189 14.1928 4.0326 
291 0 4 18.2608 14.6189 2.14057 
292 0 4 16.2868 13.1841 2.37449 
293 0 4 16.62 13.1299 4.06824 
294 0 4 16.6369 15.333 4.4994 
295 0 4 16.419 15.6797 2.53324 
296 0 4 14.6883 14.1969 2.83462 
297 0 4 14.8688 13.9006 4.01566 
298 0 4 14.3035 16.622 4.85278 
299 0 4 14.5639 16.8133 3.06006 
300 0 4 13.0194 15.8796 3.23106 
301 0 4 12.9856 14.6644 4.0565 
302 0 4 13.2438 19.0863 4.83086 
303 0 4 10.8339 17.6975 7.26134 
304 0 4 11.4843 18.7148 6.32662 
305 0 1 20.9118 18.6453 12.3774 
306 0 2 20.262 18.7751 11.0269 
307 0 2 18.85 18.229 11.0274 
308 0 2 18.2222 18.4067 9.67861 
309 0 2 16.789 18.0597 9.64478 
310 0 2 16.255 18.2235 8.27717 
311 0 2 14.8585 17.6454 8.29158 
312 0 2 14.2737 18.0085 6.91031 
313 0 3 13.9014 19.6416 7.29412 
314 0 2 13.8175 13.4487 5.91945 
315 0 4 21.9155 19.1037 12.3495 
316 0 4 20.9864 17.5899 12.6714 
317 0 4 20.3174 19.1993 13.1322 
318 0 4 20.2822 19.8444 10.8747 
319 0 4 20.8628 18.3668 10.1932 
320 0 4 18.8733 17.1609 11.2894 
321 0 4 18.216 18.7376 11.7811 
322 0 4 18.034 19.4237 9.44331 
323 0 4 18.7881 17.9638 8.83233 
324 0 4 16.7261 17.0446 9.79695 
325 0 4 16.1399 18.4368 10.4483 
326 0 4 16.2178 19.2875 7.98276 
327 0 4 16.8595 17.6634 7.52542 
328 0 4 14.8531 16.5641 8.3586 
329 0 4 14.2036 17.9582 9.12475 
330 0 4 14.8464 18.8954 6.51746 
331 0 4 15.0626 17.5376 6.24072 
332 0 4 12.97 16.3366 10.1281 
333 0 4 14.416 14.873 5.95619 
334 0 4 13.2035 14.3474 5.82218 
335 0 1 21.509 7.50648 7.02937 
336 0 2 20.1497 7.83298 6.4532 
337 0 2 19.7235 9.19065 6.98042 
338 0 2 18.408 9.5217 6.36988 
339 0 2 17.9417 10.8257 6.89112 
340 0 2 16.7353 11.0412 6.07717 
341 0 2 16.1514 12.2063 6.76293 
342 0 2 14.8763 12.3155 6.12859 
343 0 3 14.2007 14.1606 7.16226 
344 0 2 13.4149 13.477 8.19708 
345 0 4 21.85 6.51521 6.69904 
346 0 4 21.4837 7.50826 8.13452 
347 0 4 22.2638 8.24969 6.71347 
348 0 4 20.1758 7.8537 5.34584 
349 0 4 19.4004 7.06394 6.73022 
350 0 4 19.6219 9.19174 8.08484 
351 0 4 20.4326 9.99122 6.71333 
352 0 4 18.4024 9.54264 5.26451 
353 0 4 17.6912 8.75539 6.63476 
354 0 4 17.7388 10.8174 7.99001 
355 0 4 18.6101 11.6767 6.70244 
356 0 4 16.8503 11.2629 5.00214 
357 0 4 15.9603 10.2552 6.00357 
358 0 4 16.222 12.1804 7.81874 
359 0 4 16.4905 13.1606 6.47975 
360 0 4 15.3433 12.2968 5.09126 
361 0 4 14.0557 11.4799 6.10352 
362 0 4 15.1653 14.5095 7.50818 
363 0 4 12.383 13.2656 7.98223 
364 0 4 13.4374 14.0668 9.0915 
365 0 1 17.1052 3.05349 7.12017 
366 0 2 15.8607 3.90408 7.09124 
367 0 2 16.1694 5.35128 7.44044 
368 0 2 14.9209 6.2191 7.35922 
369 0 2 15.2743 7.67271 7.55545 
370 0 2 14.091 8.61295 7.48981 
371 0 2 14.3314 9.99306 7.80317 
372 0 2 13.1752 10.9816 8.05945 
373 0 3 13.8115 12.2782 8.69298 
374 0 2 13.9754 12.3685 10.2407 
375 0 4 16.8561 1.97428 7.18447 
376 0 4 17.7333 3.30266 7.9917 
377 0 4 17.8188 3.24417 6.32373 
378 0 4 15.1985 3.79601 6.23744 
379 0 4 15.0593 3.42143 7.63067 
380 0 4 16.7595 5.49224 8.36316 
381 0 4 16.9509 5.70875 6.75918 
382 0 4 14.3743 6.06159 6.43406 
383 0 4 14.0677 5.83854 7.91907 
384 0 4 15.9415 7.81044 8.4285 
385 0 4 16.0001 7.95904 6.83296 
386 0 4 13.5058 8.46514 6.66939 
387 0 4 13.2406 8.34224 8.0872 
388 0 4 15.0538 10.2103 8.57214 
389 0 4 15.3867 10.1851 7.78099 
390 0 4 12.531 11.1079 7.17287 
391 0 4 12.3566 10.7043 8.71993 
392 0 4 14.8565 12.3443 8.92414 
393 0 4 13.1798 12.5201 10.8445 
394 0 4 14.4614 13.0444 10.9386 
395 0 1 17.2573 1.68434 9.81954 
396 0 2 15.9583 2.26849 9.91098 
397 0 2 16.4471 3.60679 10.383 
398 0 2 15.1295 4.14619 10.432 
399 0 2 15.5381 5.77378 10.916 
400 0 2 13.1746 5.11092 10.2514 
401 0 2 16.9455 7.24082 13.7612 
402 0 2 14.0716 10.7612 10.5284 
403 0 3 14.4044 10.5139 11.9175 
404 0 2 13.0774 10.4265 12.6838 
405 0 4 18.0767 1.74714 9.12254 
406 0 4 16.8143 0.96704 9.15163 
407 0 4 17.5337 1.50114 10.8704 
408 0 4 15.3004 2.14172 9.01581 
409 0 4 15.3386 1.85947 10.7321 
410 0 4 16.8066 3.61155 11.4096 
411 0 4 17.1653 4.14904 9.76163 
412 0 4 14.7674 4.05508 9.32765 
413 0 4 14.4879 3.54888 11.1565 
414 0 4 15.823 5.65677 11.9276 
415 0 4 16.1415 6.20041 10.084 
416 0 4 14.0832 5.74916 9.75726 
417 0 4 13.8056 5.9441 11.3947 
418 0 4 15.4019 7.68135 12.6268 
419 0 4 17.3174 8.46822 9.83756 
420 0 4 13.9107 9.91228 10.1104 
421 0 4 11.4116 8.89001 11.8389 
422 0 4 14.9519 11.476 12.1667 
423 0 4 13.3082 10.8832 13.5992 
424 0 4 13.6414 9.52267 12.7322 
425 0 1 4.35738 5.84321 9.07538 
426 0 2 4.93699 7.22958 8.89516 
427 0 2 6.07868 7.20874 9.77887 
428 0 2 6.769 8.52205 9.67374 
429 0 2 7.75492 8.38959 10.7194 
430 0 2 8.54862 9.5893 10.9113 
431 0 2 9.12369 9.52189 12.3071 
432 0 2 10.1797 10.5746 12.4228 
433 0 3 11.5377 10.4665 13.1623 
434 0 2 11.0013 11.0216 14.4809 
435 0 4 4.90885 4.98112 8.69192 
436 0 4 3.60631 5.7708 8.369 
437 0 4 3.86502 5.61799 10.0213 
438 0 4 5.36209 7.51496 7.92855 
439 0 4 4.35656 8.0913 9.23745 
440 0 4 5.57953 7.14703 10.7679 
441 0 4 6.70821 6.34811 9.45883 
442 0 4 7.31216 8.63344 8.71973 
443 0 4 6.12371 9.34664 10.0062 
444 0 4 7.28291 8.07751 11.6776 
445 0 4 8.44463 7.64491 10.3113 
446 0 4 9.2927 9.58016 10.0818 
447 0 4 8.00742 10.5385 10.9663 
448 0 4 9.14768 8.44038 12.522 
449 0 4 9.81953 8.82783 12.7024 
450 0 4 10.4251 10.5022 11.4458 
451 0 4 9.70225 11.5696 12.4588 
452 0 4 11.9505 9.50477 13.3898 
453 0 4 9.89962 10.993 14.5433 
454 0 4 10.8741 12.0487 14.2023 
455 0 1 15.2247 17.7555 24.1525 
456 0 2 16.6755 17.9291 20.8599 
457 0 2 14.4888 16.6033 19.5807 
458 0 2 14.4504 15.4883 18.8003 
459 0 2 13.4772 14.6981 18.1428 
460 0 2 13.9841 13.9316 17.1407 
461 0 2 13.6473 12.6259 16.723 
462 0 2 12.7075 11.7704 15.7387 
463 0 3 11.4633 10.8723 15.901 
464 0 2 11.8325 9.69589 16.9185 
465 0 4 14.6261 18.1106 23.3499 
466 0 4 15.7125 18.7043 23.8403 
467 0 4 14.3812 17.3455 23.6582 
468 0 4 15.5299 18.0453 20.7357 
469 0 4 16.426 16.9389 21.4654 
470 0 4 15.0609 15.28 21.9993 
471 0 4 13.9478 17.5235 19.5427 
472 0 4 14.8711 16.0297 18.0447 
473 0 4 14.982 14.7258 19.3094 
474 0 4 12.7984 14.0814 18.487 
475 0 4 12.4737 14.8228 18.3649 
476 0 4 14.1789 14.8216 16.5335 
477 0 4 14.8925 13.5846 17.6426 
478 0 4 12.5575 10.466 18.9194 
479 0 4 9.34356 12.7508 15.1112 
480 0 4 12.2664 12.7039 15.5487 
481 0 4 13.2156 11.6449 16.7212 
482 0 4 10.4484 11.1669 16.3833 
483 0 4 12.8474 9.62523 16.6505 
484 0 4 10.8981 9.18658 17.0784 
485 0 1 20.1865 4.79614 22.9458 
486 0 2 18.6854 4.85477 22.8603 
487 0 2 18.4775 5.84569 21.7957 
488 0 2 16.9362 6.08266 21.7009 
489 0 2 17.4617 7.28598 20.7556 
490 0 2 13.9654 6.76553 20.9514 
491 0 2 17.701 8.98784 20.1752 
492 0 2 10.7009 7.5311 19.0947 
493 0 3 12.1953 8.26987 16.3514 
494 0 2 14.2222 11.8878 21.5878 
495 0 4 20.6327 4.46821 21.9924 
496 0 4 20.4484 4.13866 23.7708 
497 0 4 20.5849 5.82251 23.1069 
498 0 4 18.1894 3.93729 22.5284 
499 0 4 18.1941 5.28226 23.7595 
500 0 4 19.1001 6.70967 22.1507 
501 0 4 18.9409 5.54612 20.8152 
502 0 4 16.4135 5.1941 21.2386 
503 0 4 16.4209 6.46931 22.6041 
504 0 4 18.0764 8.15856 21.9776 
505 0 4 17.3771 6.60154 19.828 
506 0 4 14.7035 6.58161 19.9399 
507 0 4 14.5394 7.7948 21.4102 
508 0 4 15.9824 9.12345 20.4643 
509 0 4 15.8328 7.98952 19.4617 
510 0 4 12.0822 7.31235 19.2898 
511 0 4 11.7809 8.16475 19.4386 
512 0 4 14.4599 10.4748 16.6252 
513 0 4 14.1162 10.9419 20.6084 
514 0 4 13.2969 11.2033 20.5098 
515 0 1 14.498 21.7768 23.276 
516 0 2 13.9797 20.4991 22.9755 
517 0 2 14.8616 20.1695 21.9835 
518 0 2 12.0777 17.3934 22.4609 
519 0 2 13.1061 17.3442 21.5979 
520 0 2 12.6414 16.0433 21.0834 
521 0 2 12.9366 14.6617 20.7652 
522 0 2 13.4228 13.3729 20.493 
523 0 3 15.58 11.7966 21.1865 
524 0 2 8.47571 14.7369 16.0207 
525 0 4 15.4728 21.8544 23.609 
526 0 4 13.7489 22.3249 23.7884 
527 0 4 14.5467 22.7692 23.1606 
528 0 4 14.195 19.9659 23.8489 
529 0 4 12.9781 20.4832 22.7414 
530 0 4 14.0861 19.6581 21.3901 
531 0 4 14.7036 19.1186 21.8573 
532 0 4 12.5211 17.5685 23.3718 
533 0 4 12.0476 18.5859 21.9553 
534 0 4 13.3081 19.3525 19.6642 
535 0 4 13.9845 16.9739 21.901 
536 0 4 14.2865 15.5875 23.5668 
537 0 4 11.6994 15.9099 20.61 
538 0 4 12.3303 16.3887 19.0625 
539 0 4 13.9233 14.7035 20.8494 
540 0 4 12.6872 13.2104 21.3369 
541 0 4 12.486 13.2457 20.1837 
542 0 4 14.0067 12.4122 19.3777 
543 0 4 10.3055 13.9464 16.933 
544 0 4 9.70377 12.8528 17.047 
545 0 1 13.821 24.2384 15.6752 
546 0 2 13.0803 22.9677 15.8351 
547 0 2 13.7177 21.5945 16.0396 
548 0 2 12.9905 20.6828 16.9716 
549 0 2 13.4495 19.2636 16.824 
550 0 2 12.5746 18.2168 17.264 
551 0 2 12.5355 16.8759 16.8375 
552 0 2 11.2354 16.0367 17.0181 
553 0 3 10.99 14.5188 16.6322 
554 0 2 11.3815 14.7997 15.1216 
555 0 4 14.4604 24.2546 16.5463 
556 0 4 13.6188 25.1529 16.2563 
557 0 4 14.599 24.1904 14.9201 
558 0 4 13.0643 23.2098 16.8217 
559 0 4 11.9898 23.0625 15.8115 
560 0 4 14.107 21.099 15.1699 
561 0 4 14.61 21.4519 16.6187 
562 0 4 12.7635 20.9088 18.0298 
563 0 4 12.0412 20.9667 16.5832 
564 0 4 13.7925 19.0274 15.8223 
565 0 4 14.2004 19.0625 17.5526 
566 0 4 12.7326 18.1683 18.2974 
567 0 4 11.5611 18.2556 17.0468 
568 0 4 13.2109 16.6424 16.0754 
569 0 4 13.4384 16.7118 17.2397 
570 0 4 10.7787 16.4315 17.882 
571 0 4 10.3489 16.3947 16.6906 
572 0 4 11.9911 14.616 16.2034 
573 0 4 10.6153 14.374 14.5879 
574 0 4 11.3341 13.8937 14.6062 
575 0 1 17.9911 14.7864 6.84782 
576 0 2 18.3109 14.8732 8.33723 
577 0 2 17.0075 14.8406 8.88599 
578 0 2 16.9826 14.8816 10.3495 
579 0 2 15.5347 15.181 10.5836 
580 0 2 15.3788 15.4447 12.012 
581 0 2 13.9979 15.7365 12.435 
582 0 2 13.6785 15.8642 13.9158 
583 0 3 12.1047 15.847 14.2525 
584 0 2 11.8521 17.3399 14.3531 
585 0 4 18.1842 13.8588 6.30015 
586 0 4 18.9835 14.8278 6.90756 
587 0 4 17.8113 15.6904 6.25044 
588 0 4 18.7916 13.9723 8.78048 
589 0 4 18.8375 15.8063 8.64743 
590 0 4 16.4828 15.6417 8.36773 
591 0 4 16.5587 13.8909 8.62707 
592 0 4 17.2797 13.9021 10.7448 
593 0 4 17.5844 15.6354 10.86 
594 0 4 14.9329 15.9027 10.0841 
595 0 4 15.0918 14.3875 10.0448 
596 0 4 15.8327 14.495 12.3183 
597 0 4 16.0221 16.1924 12.439 
598 0 4 13.2602 16.2028 11.8544 
599 0 4 13.6638 14.8739 11.8824 
600 0 4 14.0238 15.2367 14.6868 
601 0 4 14.3453 16.5524 14.4277 
602 0 4 11.6383 15.4351 13.3577 
603 0 4 12.0152 17.1625 13.4149 
604 0 4 12.7791 17.8937 14.524 
605 0 1 0.817656 17.0107 17.116 
606 0 2 1.64223 17.1094 15.8525 
607 0 2 3.1032 16.776 15.8987 
608 0 2 4.22389 17.6049 15.3871 
609 0 2 5.66856 17.3643 15.5737 
610 0 2 6.88209 17.5995 14.7895 
611 0 2 8.3351 17.4427 14.9318 
612 0 2 9.30124 18.1586 14.1884 
613 0 3 10.6809 18.1404 14.6336 
614 0 2 10.8178 19.495 15.1186 
615 0 4 0.821519 16.0519 17.6754 
616 0 4 -0.209793 17.371 17.0999 
617 0 4 1.15274 17.807 17.7727 
618 0 4 1.24401 16.667 14.9744 
619 0 4 1.53058 18.1406 15.5637 
620 0 4 3.1431 17.3524 16.7256 
621 0 4 3.44038 15.81 16.2116 
622 0 4 3.84916 16.9668 14.6211 
623 0 4 3.99817 18.663 15.3256 
624 0 4 5.78646 17.961 16.4269 
625 0 4 5.60563 16.3181 15.8093 
626 0 4 6.58836 16.7989 14.2256 
627 0 4 6.99513 18.5188 14.329 
628 0 4 8.75453 17.9735 15.7174 
629 0 4 8.78063 16.6214 15.3508 
630 0 4 9.04655 17.6297 13.4113 
631 0 4 8.99976 19.0603 13.7085 
632 0 4 10.6294 17.4922 15.4002 
633 0 4 10.7941 20.2609 14.398 
634 0 4 11.846 19.5756 15.2768 
635 0 1 9.23405 25.3627 24.8888 
636 0 2 9.6959 23.7786 24.8265 
637 0 2 10.1166 28.6801 22.6031 
638 0 2 9.37354 21.4294 21.3151 
639 0 2 9.80263 22.1292 20.407 
640 0 2 10.258 20.9142 19.6765 
641 0 2 10.1565 20.9591 18.2551 
642 0 2 10.1144 19.9054 17.3194 
643 0 3 9.87949 20.2157 15.9762 
644 0 2 8.4199 20.2329 15.8231 
645 0 4 10.2233 25.7155 24.7711 
646 0 4 8.66383 25.4632 25.8374 
647 0 4 8.58347 26.1701 24.4529 
648 0 4 10.725 23.9467 24.9898 
649 0 4 9.36549 24.1412 23.5448 
650 0 4 9.30261 25.9445 22.463 
651 0 4 10.2036 26.1788 22.7298 
652 0 4 9.50226 22.2247 21.9191 
653 0 4 9.00813 21.5936 22.3478 
654 0 4 9.22778 22.9693 20.2077 
655 0 4 10.5277 22.7992 20.4581 
656 0 4 11.0803 20.3918 20.2293 
657 0 4 9.62582 20.0252 19.6708 
658 0 4 9.28783 21.3801 17.9752 
659 0 4 10.582 21.7032 17.7338 
660 0 4 11.0727 19.8388 17.6895 
661 0 4 9.75986 18.9316 17.4859 
662 0 4 10.1595 21.2624 15.8499 
663 0 4 8.07294 20.178 14.8568 
664 0 4 8.3034 21.2764 16.0909 
665 0 1 1.80708 20.5468 25.3665 
666 0 2 3.0413 19.9651 25.1535 
667 0 2 2.89699 19.7753 23.726 
668 0 2 4.11357 20.2225 23.3894 
669 0 2 2.70742 20.0644 20.9442 
670 0 2 7.59673 20.9132 19.6853 
671 0 2 6.43113 20.1502 19.0675 
672 0 2 7.39113 19.6899 18.0601 
673 0 3 7.33319 19.6343 16.6497 
674 0 2 8.00129 17.3804 17.5846 
675 0 4 1.44245 21.3382 24.8039 
676 0 4 1.83546 20.6701 26.3719 
677 0 4 1.20423 19.8021 25.0305 
678 0 4 3.73952 20.6665 25.5223 
679 0 4 3.22757 19.0663 25.6737 
680 0 4 1.92656 19.4211 23.401 
681 0 4 2.14738 19.9673 23.0002 
682 0 4 5.0354 20.9414 21.9792 
683 0 4 4.06913 19.084 23.504 
684 0 4 3.7168 20.1077 21.0694 
685 0 4 3.99235 20.216 20.2984 
686 0 4 6.71802 20.9844 20.481 
687 0 4 7.93681 20.1645 20.2468 
688 0 4 6.35473 19.0674 18.9105 
689 0 4 5.61134 20.5834 18.5659 
690 0 4 7.7491 20.5966 17.739 
691 0 4 8.26396 19.272 18.5192 
692 0 4 6.28523 19.7176 16.479 
693 0 4 9.03586 17.2823 17.4787 
694 0 4 7.58625 16.9245 16.7836 
695 0 1 -1.76287 12.9592 21.1314 
696 0 2 -2.46138 15.134 21.0966 
697 0 2 2.28409 11.4183 19.7057 
698 0 2 1.08921 14.3021 20.0762 
699 0 2 2.33929 14.2411 19.1076 
700 0 2 3.12744 15.2898 18.3479 
701 0 2 4.67723 15.212 18.0318 
702 0 2 5.75552 16.2226 17.9385 
703 0 3 7.20317 16.4913 18.2339 
704 0 2 8.04833 16.9762 19.4168 
705 0 4 -2.07052 12.1631 20.436 
706 0 4 -2.23051 12.4893 22.0108 
707 0 4 -1.76934 12.3944 22.1893 
708 0 4 -1.25216 14.6545 20.5527 
709 0 4 -1.46998 14.5732 21.6903 
710 0 4 1.65313 12.477 20.76 
711 0 4 0.710134 12.5411 19.5848 
712 0 4 0.478582 14.7734 19.3784 
713 0 4 1.72949 14.6273 20.8702 
714 0 4 2.91957 13.7579 19.9487 
715 0 4 2.19206 13.5728 18.2806 
716 0 4 2.68018 16.2116 18.5432 
717 0 4 3.45577 15.3151 19.2444 
718 0 4 5.10909 14.6591 18.7638 
719 0 4 4.70361 14.3881 17.4369 
720 0 4 5.07444 16.9028 17.7025 
721 0 4 5.67212 17.2065 18.3383 
722 0 4 7.72577 15.6202 17.8544 
723 0 4 7.27318 17.3849 19.8615 
724 0 4 8.35338 17.992 19.7884 
725 0 1 15.9046 9.13659 17.5638 
726 0 2 14.2199 9.33622 18.4302 
727 0 2 16.2199 11.2337 18.205 
728 0 2 8.08163 8.34879 19.352 
729 0 2 11.6904 12.3634 18.5106 
730 0 2 10.4902 12.6345 19.2255 
731 0 2 10.0819 13.9831 19.0705 
732 0 2 9.5426 14.8979 19.9362 
733 0 3 8.94644 16.1144 20.0814 
734 0 2 9.36797 16.1849 21.4246 
735 0 4 15.9407 9.01696 16.5623 
736 0 4 15.9112 8.15373 17.3301 
737 0 4 16.9024 9.16894 17.8891 
738 0 4 14.0579 8.38378 18.0279 
739 0 4 14.2335 9.00824 19.4346 
740 0 4 15.2884 10.5999 19.1054 
741 0 4 14.6876 10.8737 18.4333 
742 0 4 10.1291 9.87805 18.6061 
743 0 4 13.628 9.29431 21.1292 
744 0 4 16.0768 13.5853 22.2196 
745 0 4 11.4278 12.0518 17.6345 
746 0 4 9.72276 11.9626 18.8889 
747 0 4 10.6585 12.542 20.2468 
748 0 4 10.9665 14.3917 19.4211 
749 0 4 10.5764 14.8501 18.7288 
750 0 4 9.01907 14.3981 18.3692 
751 0 4 9.32357 14.2036 20.7038 
752 0 4 9.49015 16.5521 19.353 
753 0 4 10.0968 16.8198 21.2918 
754 0 4 10.3391 16.3865 21.5457 
755 0 1 7.09672 19.3687 32.8631 
756 0 2 8.23804 19.094 32.043 
757 0 2 7.38369 19.2903 30.7758 
758 0 2 8.61025 18.8212 30.157 
759 0 2 8.2804 18.2436 29.0023 
760 0 2 10.2862 18.7243 28.6196 
761 0 2 9.46347 15.2404 24.4278 
762 0 2 10.0339 16.3062 23.9547 
763 0 3 9.04664 15.6329 22.7479 
764 0 2 8.02822 14.2622 22.7128 
765 0 4 6.91162 20.4537 32.6691 
766 0 4 7.65746 19.204 33.7257 
767 0 4 6.30532 18.6261 32.8317 
768 0 4 9.02546 19.7847 31.982 
769 0 4 8.76611 18.0906 32.2976 
770 0 4 6.46113 18.6506 30.567 
771 0 4 7.10861 20.3013 30.4811 
772 0 4 9.54186 18.3701 30.4805 
773 0 4 7.5433 17.2993 31.2275 
774 0 4 7.38703 18.368 28.5818 
775 0 4 8.81038 18.6931 28.2466 
776 0 4 10.7469 18.0364 27.6336 
777 0 4 10.7173 14.0417 26.9882 
778 0 4 9.24035 15.6134 25.4329 
779 0 4 9.57682 16.5588 24.8961 
780 0 4 11.0545 16.3558 23.9076 
781 0 4 10.6037 15.4568 24.0134 
782 0 4 8.93708 16.6492 22.7998 
783 0 4 7.67534 14.4214 23.7989 
784 0 4 8.87841 13.8351 22.9655 
785 0 1 4.5526 8.48618 14.1273 
786 0 2 5.49645 9.57203 14.395 
787 0 2 5.70012 9.69794 15.8217 
788 0 2 6.56718 10.7312 16.3467 
789 0 2 7.06006 10.0894 17.4694 
790 0 2 7.25517 13.2907 18.2831 
791 0 2 6.15293 9.98974 19.3574 
792 0 2 7.17058 14.205 19.1835 
793 0 3 6.42972 12.9916 24.1014 
794 0 2 5.64094 11.9403 23.7808 
795 0 4 5.14727 7.83945 14.6979 
796 0 4 4.52492 8.33431 13.0307 
797 0 4 3.58334 8.49014 14.6595 
798 0 4 6.43291 9.66789 13.8751 
799 0 4 4.8645 10.1819 13.8454 
800 0 4 4.73599 9.91636 16.2994 
801 0 4 5.90358 8.72395 16.2996 
802 0 4 7.53047 11.1739 16.0662 
803 0 4 5.89611 11.3189 16.9731 
804 0 4 3.98397 10.3062 19.5474 
805 0 4 7.26389 9.13859 17.6167 
806 0 4 8.00478 12.5279 17.7869 
807 0 4 6.35407 12.9628 17.7074 
808 0 4 5.66936 10.8853 19.6836 
809 0 4 7.19512 11.3745 19.2413 
810 0 4 7.67316 13.7994 20.2378 
811 0 4 6.50858 14.1655 20.0911 
812 0 4 6.97234 12.697 23.2786 
813 0 4 5.21987 13.0908 23.8038 
814 0 4 4.67142 12.4475 23.5662 
815 0 1 0.380859 22.111 15.6714 
816 0 2 1.52274 21.1686 15.5322 
817 0 2 1.63317 20.8925 16.9887 
818 0 2 2.88653 20.1788 16.9879 
819 0 2 3.03796 19.614 18.3244 
820 0 2 4.22165 19.0198 17.8159 
821 0 2 4.15728 16.3657 21.1225 
822 0 2 5.52285 16.0123 20.8645 
823 0 3 5.81305 16.5754 22.027 
824 0 2 6.75429 15.7725 21.3338 
825 0 4 -0.484918 21.5405 16.1019 
826 0 4 0.276661 22.3897 14.6352 
827 0 4 0.69515 22.9577 16.341 
828 0 4 1.29833 20.1734 15.079 
829 0 4 2.4793 21.5791 15.1314 
830 0 4 1.66537 21.7097 17.7051 
831 0 4 0.864408 20.147 17.2979 
832 0 4 2.54202 19.3236 16.4697 
833 0 4 3.78413 20.6262 16.4577 
834 0 4 3.03413 20.5841 18.7579 
835 0 4 2.0877 19.1554 18.5891 
836 0 4 3.74333 18.0241 18.2188 
837 0 4 4.52053 18.7731 18.9377 
838 0 4 4.24089 17.3723 20.4836 
839 0 4 3.24707 15.9966 20.7789 
840 0 4 4.82466 15.6096 20.1465 
841 0 4 5.68471 16.6202 19.8925 
842 0 4 5.26584 15.894 22.8492 
843 0 4 7.28447 16.7124 21.9004 
844 0 4 6.95315 16.4504 22.1982 
845 0 1 12.378 16.016 32.6034 
846 0 2 11.4885 15.3111 31.7591 
847 0 2 11.0743 15.8063 30.5222 
848 0 2 10.3876 14.7815 29.7324 
849 0 2 11.0333 15.2754 28.6004 
850 0 2 8.43002 16.6308 27.0566 
851 0 2 8.27253 17.6757 26.3076 
852 0 2 7.31248 16.5897 24.8766 
853 0 3 6.33244 18.6301 26.886 
854 0 2 6.31551 18.7558 25.075 
855 0 4 13.2585 16.1319 32.0727 
856 0 4 12.9534 15.6388 33.325 
857 0 4 12.0593 16.8404 33.164 
858 0 4 11.5713 14.244 31.5401 
859 0 4 10.7132 15.6419 32.3508 
860 0 4 10.4664 16.6661 30.6238 
861 0 4 12.0848 16.105 30.3183 
862 0 4 10.9117 14.0757 29.0923 
863 0 4 9.46733 15.0817 29.4212 
864 0 4 10.5807 20.2845 29.8429 
865 0 4 11.3344 16.2676 28.2607 
866 0 4 9.12457 14.1376 26.2099 
867 0 4 8.21097 16.4345 28.0245 
868 0 4 8.78843 18.5333 26.4658 
869 0 4 8.95029 18.0624 25.7085 
870 0 4 6.30964 16.8179 24.3662 
871 0 4 6.28173 16.6576 25.2305 
872 0 4 7.67323 17.0693 23.7586 
873 0 4 5.57651 18.4622 25.7957 
874 0 4 5.32382 18.2966 24.7263 
875 0 1 0.63635 26.7937 18.4568 
876 0 2 1.48444 25.6142 18.1865 
877 0 2 1.43498 24.9512 19.4752 
878 0 2 2.50374 23.9023 19.3157 
879 0 2 2.6472 23.6849 20.7646 
880 0 2 3.38036 22.5579 21.2077 
881 0 2 2.71886 22.114 22.2291 
882 0 2 7.48382 18.9582 24.1301 
883 0 3 6.53695 20.1893 24.361 
884 0 2 7.45402 21.2721 24.8186 
885 0 4 -0.33267 26.3899 18.6842 
886 0 4 0.553131 27.2805 17.5053 
887 0 4 1.00648 27.4162 19.3279 
888 0 4 1.14907 24.8275 17.4947 
889 0 4 2.48507 25.935 17.9795 
890 0 4 1.65702 25.701 20.3093 
891 0 4 0.442087 24.5324 19.7249 
892 0 4 2.32949 22.9647 18.8362 
893 0 4 3.44906 24.1202 18.7465 
894 0 4 3.11299 24.5799 20.9502 
895 0 4 1.78984 24.0336 21.4853 
896 0 4 3.34067 22.0419 20.2076 
897 0 4 4.19034 22.0763 20.9061 
898 0 4 3.82843 22.1659 22.6798 
899 0 4 3.32186 22.1083 23.3045 
900 0 4 6.21822 20.2991 23.3612 
901 0 4 6.92861 20.2311 22.994 
902 0 4 5.75475 20.2551 25.1368 
903 0 4 8.41813 21.285 24.3048 