ITEM: TIMESTEP
0
ITEM: NUMBER OF ATOMS
60
ITEM: BOX BOUNDS pp pp pp
0.0000000000000000e+00 1.0616800000000000e+01
0.0000000000000000e+00 1.0616800000000000e+01
0.0000000000000000e+00 1.0616800000000000e+01
ITEM: ATOMS id mol type xu yu zu 
1 0 1 1.6183 8.91211 -2.01402 
2 0 3 2.04177 9.44585 -0.646681 
3 0 2 0.951402 10.383 -0.167611 
4 0 2 0.986384 10.7694 1.29646 
5 0 1 -0.146805 11.737 1.60163 
6 0 1 3.39131 10.1455 -0.773534 
7 1 1 5.35022 7.14415 9.8231 
8 1 3 4.01415 6.41487 9.74979 
9 1 2 4.0378 5.16179 10.6153 
10 1 2 2.64236 4.63243 10.9013 
11 1 1 2.66808 3.28865 11.6041 
12 1 1 3.68172 6.11949 8.29302 
13 2 1 12.4241 0.636899 6.22871 
14 2 3 11.9188 1.79356 5.36875 
15 2 2 10.4503 1.53322 5.09577 
16 2 2 9.66148 2.7136 4.55767 
17 2 1 8.23851 2.21435 4.32843 
18 2 1 12.7447 1.85453 4.09001 
19 3 1 6.81583 6.79575 6.48219 
20 3 3 8.25487 6.98457 6.02456 
21 3 2 8.51217 8.44836 5.72198 
22 3 2 9.97056 8.84426 5.57633 
23 3 1 10.4463 8.75447 4.13345 
24 3 1 8.56182 6.02881 4.88384 
25 4 1 6.63525 -0.717949 8.16541 
26 4 3 7.85886 -0.336324 8.97401 
27 4 2 8.78709 0.574951 8.18562 
28 4 2 9.3621 1.64384 9.10675 
29 4 1 10.4875 2.41213 8.44092 
30 4 1 8.57471 -1.58321 9.47186 
31 5 1 5.94743 4.86279 2.97485 
32 5 3 5.05588 4.69761 4.2068 
33 5 2 3.63418 5.06566 3.82066 
34 5 2 2.68924 5.31414 4.98579 
35 5 1 1.31115 5.62694 4.41142 
36 5 1 5.12885 3.2479 4.67715 
37 6 1 7.28222 2.22761 1.2238 
38 6 3 6.44956 0.953332 1.23202 
39 6 2 7.19868 -0.154795 1.95859 
40 6 2 6.62734 -1.53208 1.65868 
41 6 1 7.40179 -2.61745 2.38512 
42 6 1 5.08883 1.25425 1.84416 
43 7 1 7.17808 4.44573 9.4451 
44 7 3 6.38084 3.8335 8.29983 
45 7 2 5.67035 2.5812 8.78689 
46 7 2 4.56909 2.05358 7.88587 
47 7 1 3.30882 2.90343 7.95133 
48 7 1 7.33578 3.55183 7.14954 
49 8 1 -1.04136 4.87948 12.3522 
50 8 3 -0.869618 5.98477 11.3096 
51 8 2 -0.332992 5.35782 10.0325 
52 8 2 -0.37575 6.2535 8.80756 
53 8 1 0.31604 5.57302 7.63506 
54 8 1 0.080315 7.04303 11.8659 
55 9 1 4.13517 8.72975 6.44366 
56 9 3 4.5355 8.99271 4.99257 
57 9 2 3.23111 9.12701 4.22194 
58 9 2 3.33095 9.15118 2.71602 
59 9 1 3.51154 7.77205 2.11669 
60 9 1 5.35822 10.2813 4.9598 
ITEM: TIMESTEP
10
ITEM: NUMBER OF ATOMS
60
ITEM: BOX BOUNDS pp pp pp
0.0000000000000000e+00 1.0616800000000000e+01
0.0000000000000000e+00 1.0616800000000000e+01
0.0000000000000000e+00 1.0616800000000000e+01
ITEM: ATOMS id mol type xu yu zu 
1 0 1 1.5737 8.95147 -2.05629 
2 0 3 2.04464 9.46819 -0.700947 
3 0 2 0.947925 10.3658 -0.179721 
4 0 2 0.962837 10.7743 1.27874 
5 0 1 -0.172138 11.7404 1.59615 
6 0 1 3.36671 10.2222 -0.787486 
7 1 1 5.36893 7.21581 9.82176 
8 1 3 4.05514 6.43721 9.79251 
9 1 2 4.08949 5.18886 10.6754 
10 1 2 2.68266 4.64614 10.8741 
11 1 1 2.57473 3.26793 11.5201 
12 1 1 3.63086 6.10681 8.3655 
13 2 1 12.3846 0.660356 6.22705 
14 2 3 11.9117 1.81374 5.35908 
15 2 2 10.4389 1.55688 5.13273 
16 2 2 9.65415 2.72245 4.57483 
17 2 1 8.24337 2.19386 4.342 
18 2 1 12.6988 1.84138 4.05601 
19 3 1 6.80488 6.82376 6.53397 
20 3 3 8.23106 7.02672 6.03896 
21 3 2 8.5187 8.47534 5.63758 
22 3 2 10.0223 8.70167 5.49792 
23 3 1 10.4344 8.88546 4.03685 
24 3 1 8.58156 6.01881 4.94582 
25 4 1 6.63616 -0.680746 8.18441 
26 4 3 7.93255 -0.388045 8.91484 
27 4 2 8.88545 0.498204 8.12705 
28 4 2 9.31609 1.64479 9.038 
29 4 1 10.5723 2.3778 8.58307 
30 4 1 8.58544 -1.65721 9.44359 
31 5 1 5.979 4.86458 2.95338 
32 5 3 5.07493 4.70025 4.17375 
33 5 2 3.64928 5.04118 3.79409 
34 5 2 2.70018 5.29403 4.95471 
35 5 1 1.32174 5.64124 4.39696 
36 5 1 5.08072 3.25845 4.65542 
37 6 1 7.28259 2.2869 1.22952 
38 6 3 6.48407 0.990148 1.2743 
39 6 2 7.23849 -0.121149 2.00858 
40 6 2 6.61496 -1.47503 1.70589 
41 6 1 7.32219 -2.65842 2.35277 
42 6 1 5.08923 1.24414 1.83777 
43 7 1 7.1684 4.45979 9.3886 
44 7 3 6.34791 3.79297 8.2886 
45 7 2 5.66394 2.52247 8.78803 
46 7 2 4.59282 2.03488 7.82711 
47 7 1 3.34547 2.89407 7.95959 
48 7 1 7.28976 3.48619 7.13334 
49 8 1 -1.00813 4.85711 12.4384 
50 8 3 -0.861657 5.94083 11.3701 
51 8 2 -0.35409 5.30298 10.0836 
52 8 2 -0.309466 6.21019 8.86333 
53 8 1 0.362199 5.56783 7.65188 
54 8 1 0.100984 7.0339 11.8285 
55 9 1 4.11662 8.73438 6.45978 
56 9 3 4.51566 8.99678 5.016 
57 9 2 3.19673 9.09137 4.27144 
58 9 2 3.34126 9.18936 2.77323 
59 9 1 3.45281 7.81562 2.15483 
60 9 1 5.3024 10.3134 4.96336 
ITEM: TIMESTEP
20
ITEM: NUMBER OF ATOMS
60
ITEM: BOX BOUNDS pp pp pp
0.0000000000000000e+00 1.0616800000000000e+01
0.0000000000000000e+00 1.0616800000000000e+01
0.0000000000000000e+00 1.0616800000000000e+01
ITEM: ATOMS id mol type xu yu zu 
1 0 1 1.51934 8.92296 -2.09598 
2 0 3 1.98012 9.40595 -0.720331 
3 0 2 0.821684 10.1778 -0.112992 
4 0 2 1.05295 10.9043 1.19806 
5 0 1 -0.152728 11.7711 1.55429 
6 0 1 3.24122 10.271 -0.79604 
7 1 1 5.38436 7.25365 9.84349 
8 1 3 4.07027 6.48094 9.84979 
9 1 2 4.11969 5.22819 10.722 
10 1 2 2.72182 4.63936 10.8504 
11 1 1 2.63328 3.25409 11.4751 
12 1 1 3.63715 6.17441 8.42063 
13 2 1 12.399 0.699944 6.20615 
14 2 3 11.874 1.85307 5.36786 
15 2 2 10.3978 1.55615 5.1786 
16 2 2 9.59287 2.68291 4.56905 
17 2 1 8.20099 2.12056 4.32898 
18 2 1 12.6108 1.93127 4.03546 
19 3 1 6.87746 6.84764 6.57295 
20 3 3 8.31086 7.02164 6.08531 
21 3 2 8.6042 8.45231 5.62899 
22 3 2 10.0866 8.6321 5.30347 
23 3 1 10.2693 9.03668 3.83896 
24 3 1 8.62976 6.01137 4.98427 
25 4 1 6.71854 -0.58152 8.13414 
26 4 3 8.00074 -0.472581 8.93836 
27 4 2 9.05898 0.353631 8.21733 
28 4 2 9.31484 1.65284 8.97898 
29 4 1 10.6736 2.27045 8.66699 
30 4 1 8.49694 -1.83219 9.4263 
31 5 1 6.01575 4.87741 2.96808 
32 5 3 5.0893 4.71314 4.17131 
33 5 2 3.68351 5.15444 3.79235 
34 5 2 2.729 5.32484 4.968 
35 5 1 1.35855 5.75588 4.44991 
36 5 1 5.02508 3.24525 4.58072 
37 6 1 7.29076 2.30033 1.185 
38 6 3 6.49617 0.999987 1.20122 
39 6 2 7.24083 -0.110158 1.94526 
40 6 2 6.55378 -1.45504 1.74956 
41 6 1 7.27649 -2.6373 2.38781 
42 6 1 5.10012 1.23727 1.76464 
43 7 1 7.15617 4.49101 9.33869 
44 7 3 6.33608 3.79836 8.26005 
45 7 2 5.6452 2.54648 8.78235 
46 7 2 4.57833 2.05377 7.81677 
47 7 1 3.39224 3.01011 7.81814 
48 7 1 7.25806 3.46136 7.10303 
49 8 1 -0.988709 4.83118 12.533 
50 8 3 -0.873049 5.87024 11.421 
51 8 2 -0.380667 5.18232 10.1543 
52 8 2 -0.205574 6.10143 8.94826 
53 8 1 0.372781 5.41773 7.70855 
54 8 1 0.114948 6.96666 11.8152 
55 9 1 4.18422 8.77113 6.541 
56 9 3 4.49655 8.99336 5.07498 
57 9 2 3.15109 9.01148 4.37276 
58 9 2 3.25956 9.28038 2.89087 
59 9 1 3.35275 7.95867 2.1581 
60 9 1 5.22324 10.3392 4.91887 
ITEM: TIMESTEP
30
ITEM: NUMBER OF ATOMS
60
ITEM: BOX BOUNDS pp pp pp
0.0000000000000000e+00 1.0616800000000000e+01
0.0000000000000000e+00 1.0616800000000000e+01
0.0000000000000000e+00 1.0616800000000000e+01
ITEM: ATOMS id mol type xu yu zu 
1 0 1 1.42852 8.91312 -2.131 
2 0 3 1.92777 9.3924 -0.762846 
3 0 2 0.759255 9.93334 0.0436097 
4 0 2 1.13039 11.0252 1.02842 
5 0 1 -0.113337 11.7738 1.52426 
6 0 1 3.04591 10.427 -0.875345 
7 1 1 5.37921 7.35977 9.83539 
8 1 3 4.07642 6.56784 9.846 
9 1 2 4.14658 5.33651 10.7422 
10 1 2 2.78225 4.66666 10.8133 
11 1 1 2.7419 3.35148 11.5797 
12 1 1 3.61597 6.20993 8.43856 
13 2 1 12.3922 0.730375 6.17424 
14 2 3 11.8131 1.89179 5.38647 
15 2 2 10.3403 1.56538 5.23564 
16 2 2 9.49538 2.62374 4.55811 
17 2 1 8.13203 1.98853 4.33905 
18 2 1 12.5234 2.0061 4.04423 
19 3 1 6.93631 6.89028 6.58136 
20 3 3 8.36286 7.04658 6.07634 
21 3 2 8.62761 8.45703 5.55272 
22 3 2 10.1046 8.63222 5.20267 
23 3 1 10.2711 9.11376 3.7612 
24 3 1 8.66835 5.98554 5.02182 
25 4 1 6.77792 -0.484659 8.1385 
26 4 3 8.06505 -0.518418 8.94163 
27 4 2 9.17523 0.256278 8.24676 
28 4 2 9.35981 1.62003 8.91143 
29 4 1 10.7813 2.15784 8.76478 
30 4 1 8.46452 -1.93205 9.35543 
31 5 1 6.07732 4.87497 2.96675 
32 5 3 5.14024 4.72018 4.16621 
33 5 2 3.75826 5.24641 3.81225 
34 5 2 2.79261 5.34983 4.98667 
35 5 1 1.40175 5.73498 4.48967 
36 5 1 5.0026 3.24666 4.52938 
37 6 1 7.27644 2.27318 1.14212 
38 6 3 6.49914 0.960789 1.16235 
39 6 2 7.26998 -0.14481 1.88178 
40 6 2 6.52027 -1.4654 1.77213 
41 6 1 7.26663 -2.65643 2.36538 
42 6 1 5.10308 1.15326 1.7445 
43 7 1 7.14382 4.53046 9.29838 
44 7 3 6.31828 3.8297 8.23203 
45 7 2 5.59373 2.61297 8.78997 
46 7 2 4.55178 2.09903 7.80723 
47 7 1 3.39502 3.08994 7.75742 
48 7 1 7.2395 3.43438 7.09357 
49 8 1 -1.02698 4.73487 12.5517 
50 8 3 -0.873468 5.79118 11.4619 
51 8 2 -0.3835 5.10228 10.1926 
52 8 2 -0.187863 6.01584 8.98253 
53 8 1 0.349326 5.30442 7.73753 
54 8 1 0.13126 6.84631 11.9098 
55 9 1 4.22912 8.82614 6.58427 
56 9 3 4.50465 9.01311 5.10232 
57 9 2 3.11767 8.98735 4.483 
58 9 2 3.11826 9.30009 3.00192 
59 9 1 3.33044 8.05432 2.16526 
60 9 1 5.20767 10.3574 4.92524 
ITEM: TIMESTEP
40
ITEM: NUMBER OF ATOMS
60
ITEM: BOX BOUNDS pp pp pp
0.0000000000000000e+00 1.0616800000000000e+01
0.0000000000000000e+00 1.0616800000000000e+01
0.0000000000000000e+00 1.0616800000000000e+01
ITEM: ATOMS id mol type xu yu zu 
1 0 1 1.39108 8.93257 -2.12671 
2 0 3 1.91306 9.41118 -0.770695 
3 0 2 0.768522 9.86651 0.122585 
4 0 2 1.1359 11.0783 0.975021 
5 0 1 -0.112616 11.7602 1.5332 
6 0 1 2.97985 10.5016 -0.890891 
7 1 1 5.32155 7.45023 9.75919 
8 1 3 4.04969 6.61515 9.81498 
9 1 2 4.15936 5.41509 10.7549 
10 1 2 2.82807 4.67358 10.7931 
11 1 1 2.8003 3.43892 11.6811 
12 1 1 3.58341 6.22778 8.41642 
13 2 1 12.377 0.761341 6.1787 
14 2 3 11.7698 1.91187 5.38943 
15 2 2 10.3061 1.54406 5.24124 
16 2 2 9.41708 2.56036 4.56065 
17 2 1 8.06228 1.87897 4.38442 
18 2 1 12.4812 2.02555 4.04608 
19 3 1 6.90546 6.89665 6.52596 
20 3 3 8.34541 7.05464 6.05231 
21 3 2 8.61477 8.46166 5.5264 
22 3 2 10.0932 8.62691 5.18987 
23 3 1 10.2838 9.10114 3.75109 
24 3 1 8.69103 5.98614 5.01484 
25 4 1 6.81806 -0.436736 8.10141 
26 4 3 8.08591 -0.512215 8.93209 
27 4 2 9.21702 0.259963 8.2719 
28 4 2 9.37913 1.6334 8.91294 
29 4 1 10.8006 2.16387 8.78124 
30 4 1 8.46184 -1.94155 9.31585 
31 5 1 6.1059 4.83185 2.96496 
32 5 3 5.18039 4.70113 4.17494 
33 5 2 3.82334 5.30925 3.84737 
34 5 2 2.83073 5.32632 5.0068 
35 5 1 1.43983 5.71448 4.50035 
36 5 1 4.9768 3.22704 4.51102 
37 6 1 7.26632 2.21651 1.13131 
38 6 3 6.49006 0.903572 1.13823 
39 6 2 7.27137 -0.196561 1.85538 
40 6 2 6.53967 -1.52829 1.77289 
41 6 1 7.33718 -2.71787 2.29284 
42 6 1 5.08969 1.09577 1.71062 
43 7 1 7.12626 4.56996 9.33447 
44 7 3 6.32371 3.86443 8.25325 
45 7 2 5.60111 2.64425 8.79514 
46 7 2 4.57136 2.1271 7.80649 
47 7 1 3.39145 3.08365 7.75877 
48 7 1 7.25292 3.47625 7.11957 
49 8 1 -1.02963 4.66425 12.5486 
50 8 3 -0.835136 5.73652 11.4809 
51 8 2 -0.361333 5.06911 10.1946 
52 8 2 -0.184178 6.00311 8.99905 
53 8 1 0.317915 5.3073 7.73157 
54 8 1 0.196087 6.75419 11.9578 
55 9 1 4.21871 8.88001 6.61727 
56 9 3 4.48555 9.02675 5.1313 
57 9 2 3.108 8.98201 4.49596 
58 9 2 3.08525 9.32789 3.02116 
59 9 1 3.34548 8.09758 2.17436 
60 9 1 5.18628 10.3661 4.90474 
ITEM: TIMESTEP
50
ITEM: NUMBER OF ATOMS
60
ITEM: BOX BOUNDS pp pp pp
0.0000000000000000e+00 1.0616800000000000e+01
0.0000000000000000e+00 1.0616800000000000e+01
0.0000000000000000e+00 1.0616800000000000e+01
ITEM: ATOMS id mol type xu yu zu 
1 0 1 1.39058 8.94746 -2.11651 
2 0 3 1.90133 9.43777 -0.758784 
3 0 2 0.756542 9.87198 0.146214 
4 0 2 1.12202 11.1028 0.968128 
5 0 1 -0.127695 11.7773 1.52878 
6 0 1 2.9484 10.5448 -0.892152 
7 1 1 5.25663 7.51788 9.71637 
8 1 3 4.00786 6.64502 9.7871 
9 1 2 4.14175 5.47738 10.7614 
10 1 2 2.88077 4.62197 10.7333 
11 1 1 2.87717 3.45546 11.713 
12 1 1 3.57522 6.21954 8.38766 
13 2 1 12.3507 0.815929 6.16565 
14 2 3 11.6846 1.94521 5.3916 
15 2 2 10.2457 1.49575 5.22952 
16 2 2 9.28198 2.46624 4.57914 
17 2 1 7.94487 1.73633 4.49429 
18 2 1 12.3886 2.12141 4.05152 
19 3 1 6.87993 6.90347 6.45967 
20 3 3 8.33312 7.05035 6.02002 
21 3 2 8.61421 8.44687 5.47476 
22 3 2 10.0923 8.61147 5.14144 
23 3 1 10.2516 9.07339 3.69341 
24 3 1 8.71652 5.97515 5.00281 
25 4 1 6.88359 -0.399855 7.98147 
26 4 3 8.08605 -0.512557 8.90159 
27 4 2 9.25885 0.246258 8.30739 
28 4 2 9.37513 1.64748 8.89557 
29 4 1 10.7985 2.18554 8.78364 
30 4 1 8.42705 -1.9566 9.27434 
31 5 1 6.14246 4.77942 2.95845 
32 5 3 5.21366 4.66441 4.16627 
33 5 2 3.89168 5.35616 3.87117 
34 5 2 2.9009 5.33014 5.03144 
35 5 1 1.51132 5.76732 4.56781 
36 5 1 4.93653 3.19593 4.46687 
37 6 1 7.27813 2.17879 1.16895 
38 6 3 6.51822 0.855479 1.13557 
39 6 2 7.28928 -0.250169 1.85547 
40 6 2 6.54998 -1.57631 1.75479 
41 6 1 7.34083 -2.78593 2.2403 
42 6 1 5.09812 1.02097 1.66719 
43 7 1 7.12785 4.62098 9.39894 
44 7 3 6.33997 3.91386 8.30259 
45 7 2 5.63819 2.66957 8.8266 
46 7 2 4.638 2.13005 7.81613 
47 7 1 3.43907 3.0652 7.72122 
48 7 1 7.2666 3.5556 7.15283 
49 8 1 -0.910677 4.61298 12.5905 
50 8 3 -0.756654 5.70491 11.534 
51 8 2 -0.336051 5.06067 10.2194 
52 8 2 -0.157551 6.01836 9.04269 
53 8 1 0.291287 5.33832 7.74585 
54 8 1 0.302937 6.7103 11.9718 
55 9 1 4.20262 8.93709 6.64811 
56 9 3 4.43192 9.03166 5.14943 
57 9 2 3.04571 8.97536 4.52929 
58 9 2 3.01111 9.34474 3.05908 
59 9 1 3.3712 8.14797 2.19646 
60 9 1 5.11842 10.3658 4.85879 
ITEM: TIMESTEP
60
ITEM: NUMBER OF ATOMS
60
ITEM: BOX BOUNDS pp pp pp
0.0000000000000000e+00 1.0616800000000000e+01
0.0000000000000000e+00 1.0616800000000000e+01
0.0000000000000000e+00 1.0616800000000000e+01
ITEM: ATOMS id mol type xu yu zu 
1 0 1 1.38045 8.96165 -2.13779 
2 0 3 1.90904 9.45133 -0.785849 
3 0 2 0.770812 9.86337 0.138494 
4 0 2 1.14135 11.0984 0.951663 
5 0 1 -0.099941 11.7786 1.51976 
6 0 1 2.92545 10.5859 -0.926802 
7 1 1 5.22873 7.52678 9.72082 
8 1 3 3.98662 6.64757 9.80011 
9 1 2 4.13436 5.48892 10.7802 
10 1 2 2.90823 4.58654 10.715 
11 1 1 2.92289 3.4184 11.6914 
12 1 1 3.56033 6.20254 8.40685 
13 2 1 12.3368 0.862314 6.11223 
14 2 3 11.6271 1.99088 5.37755 
15 2 2 10.2039 1.49276 5.22568 
16 2 2 9.18551 2.41718 4.59122 
17 2 1 7.87637 1.63436 4.57794 
18 2 1 12.312 2.21843 4.03625 
19 3 1 6.8601 6.8993 6.43925 
20 3 3 8.31517 7.05045 6.01219 
21 3 2 8.57657 8.43759 5.43825 
22 3 2 10.0541 8.60199 5.09999 
23 3 1 10.2228 9.10459 3.66677 
24 3 1 8.7193 5.95904 5.02098 
25 4 1 6.89266 -0.413274 7.92542 
26 4 3 8.07598 -0.505201 8.87161 
27 4 2 9.25811 0.258119 8.29771 
28 4 2 9.38117 1.65275 8.90338 
29 4 1 10.7977 2.20467 8.77216 
30 4 1 8.42065 -1.9465 9.24713 
31 5 1 6.16076 4.77359 2.95183 
32 5 3 5.22137 4.65054 4.15041 
33 5 2 3.90829 5.36577 3.86879 
34 5 2 2.93333 5.33861 5.04373 
35 5 1 1.5358 5.79174 4.61795 
36 5 1 4.91898 3.18244 4.42534 
37 6 1 7.32493 2.16771 1.20301 
38 6 3 6.57148 0.842763 1.1321 
39 6 2 7.33367 -0.272527 1.84458 
40 6 2 6.57659 -1.58937 1.74788 
41 6 1 7.36576 -2.81774 2.1868 
42 6 1 5.14116 0.986418 1.64041 
43 7 1 7.13364 4.62292 9.45008 
44 7 3 6.34884 3.92756 8.34259 
45 7 2 5.65501 2.66839 8.84294 
46 7 2 4.68521 2.12995 7.79929 
47 7 1 3.47815 3.05137 7.68393 
48 7 1 7.26955 3.59388 7.17974 
49 8 1 -0.833386 4.60075 12.6532 
50 8 3 -0.69806 5.69404 11.5962 
51 8 2 -0.319065 5.05659 10.2662 
52 8 2 -0.166768 6.03161 9.10022 
53 8 1 0.271153 5.37556 7.78784 
54 8 1 0.373784 6.69519 12.0137 
55 9 1 4.17131 8.91874 6.6477 
56 9 3 4.38803 9.01764 5.14807 
57 9 2 3.00064 8.96924 4.53335 
58 9 2 2.99028 9.36262 3.06944 
59 9 1 3.39747 8.1863 2.19953 
60 9 1 5.05667 10.3591 4.85391 
ITEM: TIMESTEP
70
ITEM: NUMBER OF ATOMS
60
ITEM: BOX BOUNDS pp pp pp
0.0000000000000000e+00 1.0616800000000000e+01
0.0000000000000000e+00 1.0616800000000000e+01
0.0000000000000000e+00 1.0616800000000000e+01
ITEM: ATOMS id mol type xu yu zu 
1 0 1 1.34631 8.98969 -2.2194 
2 0 3 1.89972 9.44178 -0.863205 
3 0 2 0.782356 9.83749 0.0925103 
4 0 2 1.16738 11.0871 0.874871 
5 0 1 -0.054459 11.7572 1.49221 
6 0 1 2.92268 10.5736 -0.990257 
7 1 1 5.22465 7.51928 9.72542 
8 1 3 3.9736 6.65034 9.82145 
9 1 2 4.13508 5.48601 10.7975 
10 1 2 2.94755 4.53512 10.6994 
11 1 1 3.00036 3.36201 11.6717 
12 1 1 3.52726 6.1914 8.43801 
13 2 1 12.3405 0.94906 6.04165 
14 2 3 11.5605 2.06064 5.35379 
15 2 2 10.165 1.4851 5.20296 
16 2 2 9.08158 2.35813 4.60147 
17 2 1 7.79967 1.53729 4.67838 
18 2 1 12.2078 2.36124 4.00871 
19 3 1 6.82357 6.88476 6.43046 
20 3 3 8.27955 7.04822 6.00536 
21 3 2 8.51845 8.40931 5.3641 
22 3 2 10.0035 8.59056 5.06982 
23 3 1 10.2039 9.1186 3.65054 
24 3 1 8.71683 5.92761 5.06002 
25 4 1 6.87715 -0.430103 7.87415 
26 4 3 8.05182 -0.491399 8.83393 
27 4 2 9.22997 0.282462 8.26594 
28 4 2 9.3816 1.65325 8.91917 
29 4 1 10.7875 2.22607 8.74435 
30 4 1 8.41339 -1.92544 9.22261 
31 5 1 6.16219 4.78937 2.94548 
32 5 3 5.20959 4.63692 4.12942 
33 5 2 3.90729 5.38506 3.87382 
34 5 2 2.97444 5.36975 5.08421 
35 5 1 1.56525 5.8487 4.73159 
36 5 1 4.89018 3.16267 4.3584 
37 6 1 7.36419 2.1759 1.27904 
38 6 3 6.64796 0.834759 1.14577 
39 6 2 7.40753 -0.28895 1.8465 
40 6 2 6.62557 -1.59013 1.73629 
41 6 1 7.40711 -2.8453 2.10764 
42 6 1 5.19492 0.91584 1.60282 
43 7 1 7.1516 4.61094 9.51871 
44 7 3 6.36913 3.93377 8.39544 
45 7 2 5.67448 2.6607 8.861 
46 7 2 4.73039 2.13515 7.78646 
47 7 1 3.5273 3.06 7.65334 
48 7 1 7.28548 3.6215 7.22212 
49 8 1 -0.724518 4.56662 12.7492 
50 8 3 -0.625014 5.66908 11.6982 
51 8 2 -0.298202 5.04716 10.348 
52 8 2 -0.155269 6.05629 9.21011 
53 8 1 0.209345 5.42858 7.86176 
54 8 1 0.461268 6.67112 12.0783 
55 9 1 4.14639 8.88585 6.62025 
56 9 3 4.33574 9.00999 5.12091 
57 9 2 2.93906 8.98819 4.53287 
58 9 2 2.94157 9.38739 3.07057 
59 9 1 3.44522 8.25285 2.19284 
60 9 1 4.9938 10.3548 4.84168 
ITEM: TIMESTEP
80
ITEM: NUMBER OF ATOMS
60
ITEM: BOX BOUNDS pp pp pp
0.0000000000000000e+00 1.0616800000000000e+01
0.0000000000000000e+00 1.0616800000000000e+01
0.0000000000000000e+00 1.0616800000000000e+01
ITEM: ATOMS id mol type xu yu zu 
1 0 1 1.31457 9.00598 -2.2944 
2 0 3 1.88147 9.41413 -0.929598 
3 0 2 0.787718 9.79354 0.059139 
4 0 2 1.16891 11.0708 0.801293 
5 0 1 -0.036112 11.7055 1.48644 
6 0 1 2.92401 10.5304 -1.02526 
7 1 1 5.22079 7.52614 9.70229 
8 1 3 3.97286 6.65622 9.82685 
9 1 2 4.1448 5.49734 10.8044 
10 1 2 2.96797 4.53206 10.7105 
11 1 1 3.03352 3.35531 11.676 
12 1 1 3.50431 6.19319 8.45358 
13 2 1 12.361 1.00336 6.00438 
14 2 3 11.5444 2.09302 5.32727 
15 2 2 10.1674 1.47759 5.17274 
16 2 2 9.05572 2.35358 4.63189 
17 2 1 7.78455 1.51844 4.71924 
18 2 1 12.1783 2.42478 3.98403 
19 3 1 6.80319 6.86506 6.39832 
20 3 3 8.26173 7.03959 5.98914 
21 3 2 8.49535 8.4029 5.35265 
22 3 2 9.98019 8.60323 5.07818 
23 3 1 10.1937 9.0858 3.64621 
24 3 1 8.71737 5.92024 5.05262 
25 4 1 6.8599 -0.434287 7.86278 
26 4 3 8.03857 -0.491602 8.81785 
27 4 2 9.20672 0.29891 8.2507 
28 4 2 9.37339 1.65313 8.93257 
29 4 1 10.7668 2.23937 8.71766 
30 4 1 8.41392 -1.92746 9.18574 
31 5 1 6.151 4.80738 2.94809 
32 5 3 5.20138 4.63268 4.13169 
33 5 2 3.90727 5.40559 3.90921 
34 5 2 2.99259 5.37487 5.13174 
35 5 1 1.58655 5.89479 4.83213 
36 5 1 4.86875 3.15775 4.33708 
37 6 1 7.37839 2.173 1.32163 
38 6 3 6.67325 0.828953 1.15283 
39 6 2 7.41114 -0.301043 1.86472 
40 6 2 6.64761 -1.60739 1.70245 
41 6 1 7.42862 -2.86617 2.06173 
42 6 1 5.20211 0.886433 1.55121 
43 7 1 7.16782 4.6175 9.54424 
44 7 3 6.37179 3.94466 8.42824 
45 7 2 5.68468 2.66779 8.89494 
46 7 2 4.74608 2.14193 7.81592 
47 7 1 3.53578 3.05532 7.68047 
48 7 1 7.27491 3.63713 7.24366 
49 8 1 -0.676722 4.52848 12.7947 
50 8 3 -0.576101 5.64492 11.7611 
51 8 2 -0.287742 5.03759 10.397 
52 8 2 -0.138777 6.07112 9.28376 
53 8 1 0.164987 5.4613 7.91329 
54 8 1 0.533983 6.62129 12.1379 
55 9 1 4.13985 8.87218 6.58793 
56 9 3 4.32092 9.02774 5.08889 
57 9 2 2.9214 9.02014 4.50663 
58 9 2 2.92422 9.41191 3.04314 
59 9 1 3.46145 8.27864 2.18404 
60 9 1 4.97469 10.378 4.82482 
ITEM: TIMESTEP
90
ITEM: NUMBER OF ATOMS
60
ITEM: BOX BOUNDS pp pp pp
0.0000000000000000e+00 1.0616800000000000e+01
0.0000000000000000e+00 1.0616800000000000e+01
0.0000000000000000e+00 1.0616800000000000e+01
ITEM: ATOMS id mol type xu yu zu 
1 0 1 1.29774 9.01362 -2.32594 
2 0 3 1.87162 9.40362 -0.959411 
3 0 2 0.787459 9.76425 0.0466413 
4 0 2 1.16608 11.055 0.767527 
5 0 1 -0.0279563 11.6758 1.48381 
6 0 1 2.91235 10.5226 -1.04257 
7 1 1 5.22828 7.51722 9.68074 
8 1 3 3.97625 6.65739 9.82335 
9 1 2 4.14919 5.50012 10.8026 
10 1 2 2.96406 4.54536 10.7184 
11 1 1 3.02983 3.35651 11.6691 
12 1 1 3.48552 6.19618 8.458 
13 2 1 12.3782 1.00652 5.99788 
14 2 3 11.5604 2.09303 5.31779 
15 2 2 10.1818 1.48006 5.17055 
16 2 2 9.06401 2.35884 4.64686 
17 2 1 7.79136 1.5261 4.73449 
18 2 1 12.1872 2.41713 3.9698 
19 3 1 6.79796 6.87055 6.39271 
20 3 3 8.25465 7.04982 5.98127 
21 3 2 8.4857 8.41709 5.35189 
22 3 2 9.97336 8.62424 5.0929 
23 3 1 10.2037 9.07581 3.65296 
24 3 1 8.71597 5.93326 5.04436 
25 4 1 6.83669 -0.439623 7.87415 
26 4 3 8.0276 -0.489745 8.81519 
27 4 2 9.18677 0.308744 8.23942 
28 4 2 9.36624 1.65175 8.94085 
29 4 1 10.7515 2.24841 8.70331 
30 4 1 8.41525 -1.92348 9.17716 
31 5 1 6.14339 4.79841 2.94484 
32 5 3 5.19787 4.63479 4.13399 
33 5 2 3.89967 5.40273 3.91228 
34 5 2 2.99742 5.36994 5.14454 
35 5 1 1.58893 5.89551 4.86545 
36 5 1 4.87567 3.16103 4.36064 
37 6 1 7.39603 2.1675 1.33169 
38 6 3 6.68685 0.826647 1.16248 
39 6 2 7.41113 -0.306338 1.88394 
40 6 2 6.66268 -1.61611 1.6811 
41 6 1 7.4388 -2.87284 2.05802 
42 6 1 5.21164 0.89985 1.54198 
43 7 1 7.17565 4.62103 9.5539 
44 7 3 6.376 3.95402 8.43718 
45 7 2 5.69097 2.6756 8.90154 
46 7 2 4.74542 2.1509 7.8276 
47 7 1 3.52341 3.05188 7.71007 
48 7 1 7.27496 3.65 7.24888 
49 8 1 -0.697547 4.50738 12.8012 
50 8 3 -0.572311 5.63594 11.7846 
51 8 2 -0.289299 5.03963 10.4146 
52 8 2 -0.129615 6.08325 9.31321 
53 8 1 0.133911 5.48251 7.93112 
54 8 1 0.549013 6.59203 12.1804 
55 9 1 4.12932 8.85514 6.56613 
56 9 3 4.3206 9.02411 5.07002 
57 9 2 2.92456 9.02706 4.47892 
58 9 2 2.93627 9.42379 3.01762 
59 9 1 3.47356 8.28621 2.16618 
60 9 1 4.98518 10.373 4.8203 
ITEM: TIMESTEP
100
ITEM: NUMBER OF ATOMS
60
ITEM: BOX BOUNDS pp pp pp
0.0000000000000000e+00 1.0616800000000000e+01
0.0000000000000000e+00 1.0616800000000000e+01
0.0000000000000000e+00 1.0616800000000000e+01
ITEM: ATOMS id mol type xu yu zu 
1 0 1 1.28812 9.0242 -2.34113 
2 0 3 1.86836 9.39996 -0.973012 
3 0 2 0.790312 9.76067 0.0397863 
4 0 2 1.16709 11.0577 0.750234 
5 0 1 -0.0233711 11.6691 1.48082 
6 0 1 2.92319 10.507 -1.0474 
7 1 1 5.22381 7.51178 9.67698 
8 1 3 3.97011 6.65408 9.81975 
9 1 2 4.1461 5.49372 10.7951 
10 1 2 2.95635 4.54418 10.722 
11 1 1 3.03459 3.34892 11.6634 
12 1 1 3.47677 6.19821 8.45355 
13 2 1 12.3965 1.01136 5.99479 
14 2 3 11.5748 2.09498 5.31395 
15 2 2 10.1968 1.47847 5.17085 
16 2 2 9.07461 2.35991 4.65988 
17 2 1 7.80188 1.52576 4.74594 
18 2 1 12.1973 2.41381 3.9619 
19 3 1 6.7992 6.87526 6.39181 
20 3 3 8.25627 7.05286 5.98065 
21 3 2 8.49193 8.4246 5.36222 
22 3 2 9.97854 8.62766 5.09496 
23 3 1 10.2033 9.07352 3.65216 
24 3 1 8.7116 5.94035 5.03593 
25 4 1 6.81988 -0.446205 7.88495 
26 4 3 8.0171 -0.486379 8.81824 
27 4 2 9.16972 0.316645 8.23517 
28 4 2 9.36077 1.6525 8.94735 
29 4 1 10.7421 2.25315 8.69508 
30 4 1 8.4127 -1.91787 9.1801 
31 5 1 6.13248 4.79734 2.93702 
32 5 3 5.19281 4.63595 4.12994 
33 5 2 3.88874 5.39374 3.90855 
34 5 2 2.9937 5.36694 5.1462 
35 5 1 1.58538 5.89756 4.87583 
36 5 1 4.88388 3.16087 4.36916 
37 6 1 7.39997 2.17017 1.342 
38 6 3 6.68987 0.830469 1.16827 
39 6 2 7.41051 -0.304549 1.88987 
40 6 2 6.66624 -1.61342 1.66767 
41 6 1 7.42554 -2.87083 2.07468 
42 6 1 5.21401 0.903105 1.54522 
43 7 1 7.17627 4.61879 9.56131 
44 7 3 6.37824 3.95606 8.44087 
45 7 2 5.69592 2.67469 8.90161 
46 7 2 4.74604 2.15355 7.82971 
47 7 1 3.52302 3.05387 7.72173 
48 7 1 7.27857 3.65866 7.25171 
49 8 1 -0.684483 4.50101 12.8101 
50 8 3 -0.572851 5.63422 11.7969 
51 8 2 -0.294039 5.04199 10.4242 
52 8 2 -0.136364 6.08998 9.32652 
53 8 1 0.124794 5.49392 7.94168 
54 8 1 0.548907 6.59236 12.1867 
55 9 1 4.12329 8.84743 6.55469 
56 9 3 4.31999 9.01726 5.05916 
57 9 2 2.9246 9.03051 4.46612 
58 9 2 2.93888 9.42091 3.00296 
59 9 1 3.4803 8.27861 2.16038 
60 9 1 4.9982 10.3598 4.81366 
ITEM: TIMESTEP
110
ITEM: NUMBER OF ATOMS
60
ITEM: BOX BOUNDS pp pp pp
0.0000000000000000e+00 1.0616800000000000e+01
0.0000000000000000e+00 1.0616800000000000e+01
0.0000000000000000e+00 1.0616800000000000e+01
ITEM: ATOMS id mol type xu yu zu 
1 0 1 1.28698 9.0274 -2.34343 
2 0 3 1.86752 9.40088 -0.974868 
3 0 2 0.789486 9.76388 0.0371708 
4 0 2 1.16834 11.06 0.747829 
5 0 1 -0.0211916 11.6713 1.47968 
6 0 1 2.92461 10.5058 -1.04884 
7 1 1 5.22385 7.50815 9.67564 
8 1 3 3.96815 6.6535 9.81855 
9 1 2 4.14318 5.49217 10.793 
10 1 2 2.95095 4.54576 10.7222 
11 1 1 3.03244 3.3467 11.6582 
12 1 1 3.47146 6.19863 8.45319 
13 2 1 12.4004 1.0127 5.99526 
14 2 3 11.5796 2.09474 5.31178 
15 2 2 10.2018 1.47846 5.16983 
16 2 2 9.07735 2.35787 4.66059 
17 2 1 7.8056 1.52263 4.75304 
18 2 1 12.2043 2.41028 3.96053 
19 3 1 6.80039 6.8763 6.39421 
20 3 3 8.25737 7.05129 5.98204 
21 3 2 8.49419 8.42365 5.36573 
22 3 2 9.98016 8.62603 5.09471 
23 3 1 10.2021 9.07755 3.65333 
24 3 1 8.71019 5.94026 5.03442 
25 4 1 6.81621 -0.451863 7.88593 
26 4 3 8.01422 -0.486094 8.81844 
27 4 2 9.16462 0.31784 8.23192 
28 4 2 9.3604 1.65056 8.94888 
29 4 1 10.7394 2.25414 8.69123 
30 4 1 8.41318 -1.91546 9.18481 
31 5 1 6.12993 4.80025 2.9384 
32 5 3 5.19137 4.63558 4.13212 
33 5 2 3.88438 5.3883 3.90931 
34 5 2 2.99183 5.36712 5.14871 
35 5 1 1.58339 5.89599 4.87605 
36 5 1 4.88923 3.15916 4.37168 
37 6 1 7.40416 2.1737 1.34985 
38 6 3 6.69524 0.833853 1.17157 
39 6 2 7.41182 -0.303035 1.89424 
40 6 2 6.66732 -1.61094 1.6665 
41 6 1 7.424 -2.86923 2.07592 
42 6 1 5.2174 0.905265 1.54131 
43 7 1 7.17439 4.61918 9.56387 
44 7 3 6.3781 3.9562 8.44235 
45 7 2 5.6985 2.6736 8.90297 
46 7 2 4.74895 2.15244 7.83093 
47 7 1 3.526 3.05307 7.72379 
48 7 1 7.27909 3.65931 7.25344 
49 8 1 -0.676065 4.50222 12.8135 
50 8 3 -0.575331 5.63503 11.7985 
51 8 2 -0.297915 5.04269 10.4254 
52 8 2 -0.137943 6.09114 9.32831 
53 8 1 0.121102 5.49628 7.94257 
54 8 1 0.542145 6.60068 12.1824 
55 9 1 4.12105 8.84267 6.5492 
56 9 3 4.31777 9.01448 5.05418 
57 9 2 2.92247 9.03157 4.46141 
58 9 2 2.93915 9.41908 2.9977 
59 9 1 3.48048 8.2743 2.15857 
60 9 1 4.99959 10.3558 4.81062 
ITEM: TIMESTEP
112
ITEM: NUMBER OF ATOMS
60
ITEM: BOX BOUNDS pp pp pp
0.0000000000000000e+00 1.0616800000000000e+01
0.0000000000000000e+00 1.0616800000000000e+01
0.0000000000000000e+00 1.0616800000000000e+01
ITEM: ATOMS id mol type xu yu zu 
1 0 1 1.28705 9.02726 -2.34335 
2 0 3 1.86765 9.40099 -0.974957 
3 0 2 0.789669 9.76431 0.0369398 
4 0 2 1.16841 11.0602 0.748089 
5 0 1 -0.0211673 11.6719 1.47968 
6 0 1 2.92432 10.5061 -1.04898 
7 1 1 5.22366 7.50811 9.67575 
8 1 3 3.96803 6.65343 9.81862 
9 1 2 4.14341 5.49236 10.7931 
10 1 2 2.9509 4.54613 10.7224 
11 1 1 3.03215 3.34672 11.658 
12 1 1 3.47128 6.19869 8.45328 
13 2 1 12.4006 1.01267 5.99539 
14 2 3 11.5798 2.09469 5.31169 
15 2 2 10.2018 1.47827 5.17001 
16 2 2 9.07732 2.35777 4.66077 
17 2 1 7.80601 1.52216 4.75376 
18 2 1 12.2052 2.40969 3.96043 
19 3 1 6.80035 6.87605 6.3945 
20 3 3 8.25717 7.05108 5.98214 
21 3 2 8.49397 8.42344 5.36538 
22 3 2 9.97995 8.62564 5.09455 
23 3 1 10.2024 9.07799 3.65338 
24 3 1 8.71 5.94002 5.03469 
25 4 1 6.81592 -0.452319 7.88577 
26 4 3 8.01393 -0.486152 8.8183 
27 4 2 9.16416 0.317932 8.23151 
28 4 2 9.36024 1.65041 8.94891 
29 4 1 10.7392 2.25429 8.6912 
30 4 1 8.41347 -1.91533 9.18487 
31 5 1 6.13003 4.80082 2.93865 
32 5 3 5.19156 4.63574 4.13211 
33 5 2 3.88423 5.38787 3.90946 
34 5 2 2.99139 5.36686 5.14874 
35 5 1 1.58292 5.89567 4.87559 
36 5 1 4.88951 3.15919 4.37187 
37 6 1 7.40477 2.17406 1.35043 
38 6 3 6.69556 0.834419 1.17157 
39 6 2 7.41171 -0.302523 1.89452 
40 6 2 6.66744 -1.61051 1.66654 
41 6 1 7.42393 -2.869 2.07572 
42 6 1 5.21761 0.90534 1.54094 
43 7 1 7.1742 4.61908 9.56421 
44 7 3 6.37826 3.95562 8.44264 
45 7 2 5.6988 2.67319 8.90338 
46 7 2 4.74926 2.15234 7.83115 
47 7 1 3.52647 3.05306 7.72373 
48 7 1 7.27934 3.6594 7.25359 
49 8 1 -0.675467 4.50254 12.8135 
50 8 3 -0.575426 5.63514 11.7983 
51 8 2 -0.298097 5.04251 10.4254 
52 8 2 -0.138673 6.09093 9.32815 
53 8 1 0.121103 5.49595 7.94261 
54 8 1 0.541297 6.60171 12.182 
55 9 1 4.12071 8.84216 6.54901 
56 9 3 4.3177 9.01442 5.0539 
57 9 2 2.92247 9.03139 4.46082 
58 9 2 2.93934 9.41929 2.99698 
59 9 1 3.48058 8.27394 2.15864 
60 9 1 4.99944 10.3557 4.81037 
