ITEM: TIMESTEP
250000
ITEM: NUMBER OF ATOMS
60
ITEM: BOX BOUNDS pp pp pp
0.0000000000000000e+00 1.0616800000000000e+01
0.0000000000000000e+00 1.0616800000000000e+01
0.0000000000000000e+00 1.0616800000000000e+01
ITEM: ATOMS id mol type xu yu zu 
1 0 1 -0.507854 3.4244 0.036097 
2 0 3 -0.290738 4.90429 -0.0568071 
3 0 2 -1.59135 5.37754 0.54196 
4 0 2 -1.65887 6.71419 1.16362 
5 0 1 -2.99694 7.32796 1.12138 
6 0 1 -0.416739 5.14782 -1.49066 
7 1 1 2.92565 8.87259 7.59171 
8 1 3 3.01148 7.52055 8.3391 
9 1 2 3.92155 6.52628 7.69217 
10 1 2 3.24635 5.18783 7.86253 
11 1 1 2.00303 5.36561 7.10829 
12 1 1 3.90499 7.80498 9.50692 
13 2 1 12.194 4.04879 3.85154 
14 2 3 10.5983 4.02971 3.77461 
15 2 2 10.1544 5.51661 4.01087 
16 2 2 10.0558 5.95877 5.42304 
17 2 1 10.023 7.47689 5.68839 
18 2 1 9.90476 3.2266 4.75609 
19 3 1 13.9352 10.6146 4.87223 
20 3 3 14.5816 11.7707 5.58954 
21 3 2 13.6748 12.8348 6.24733 
22 3 2 12.7226 12.1246 7.21213 
23 3 1 11.3918 12.7798 7.60775 
24 3 1 15.5368 11.2012 6.61436 
25 4 1 10.3028 -0.731407 7.65253 
26 4 3 10.3109 -0.66563 9.07372 
27 4 2 9.18895 0.259206 9.43694 
28 4 2 7.97971 -0.669971 9.63696 
29 4 1 6.58406 -0.115219 9.29916 
30 4 1 10.3924 -2.06163 9.4967 
31 5 1 2.85951 0.399769 -0.477979 
32 5 3 3.18995 1.57872 0.460916 
33 5 2 3.71127 2.98983 0.0269864 
34 5 2 3.96053 3.99326 1.1752 
35 5 1 4.86226 5.27096 0.905548 
36 5 1 2.08299 1.75022 1.55376 
37 6 1 2.54812 -3.19585 3.96155 
38 6 3 2.87957 -3.17539 2.52938 
39 6 2 3.38006 -1.82734 2.33843 
40 6 2 4.89542 -1.80905 2.3571 
41 6 1 5.2598 -0.372494 1.97125 
42 6 1 1.70101 -3.4626 1.62188 
43 7 1 7.37894 2.47624 6.93411 
44 7 3 6.80169 3.48653 7.95783 
45 7 2 7.20848 4.86893 7.55274 
46 7 2 6.98158 5.83967 8.66873 
47 7 1 6.97682 7.27209 8.11468 
48 7 1 6.64379 3.29315 9.52929 
49 8 1 -4.59797 6.75027 15.6955 
50 8 3 -5.01155 5.71446 14.7241 
51 8 2 -3.80202 4.93693 14.5187 
52 8 2 -4.22091 3.41971 14.3438 
53 8 1 -3.62716 2.66357 13.2119 
54 8 1 -5.99588 4.80586 15.3171 
55 9 1 10.7697 10.3406 3.94819 
56 9 3 9.9189 9.82231 2.91232 
57 9 2 8.64749 9.34149 3.59715 
58 9 2 8.18073 10.4273 4.47214 
59 9 1 7.15891 9.68626 5.39231 
60 9 1 9.59409 10.9811 2.05587 
ITEM: TIMESTEP
251000
ITEM: NUMBER OF ATOMS
60
ITEM: BOX BOUNDS pp pp pp
-1.0805939352682499e+00 1.1697393935268192e+01
-1.0805939352682499e+00 1.1697393935268192e+01
-1.0805939352682499e+00 1.1697393935268192e+01
ITEM: ATOMS id mol type xu yu zu 
1 0 1 -0.927421 4.08831 -0.690841 
2 0 3 -2.31393 4.58945 -0.23277 
3 0 2 -3.16991 5.45887 -1.17156 
4 0 2 -3.73924 6.70528 -0.468045 
5 0 1 -2.70629 7.86615 -0.244208 
6 0 1 -3.0277 3.82387 0.854384 
7 1 1 1.92077 9.45037 6.5513 
8 1 3 2.31373 8.29422 7.41299 
9 1 2 1.68182 6.92516 7.18151 
10 1 2 1.79987 5.82977 8.25053 
11 1 1 1.03947 5.82664 9.61441 
12 1 1 3.84304 8.31708 7.71884 
13 2 1 12.5759 3.57825 3.44763 
14 2 3 11.5573 3.92651 4.57101 
15 2 2 10.4874 4.93008 4.13074 
16 2 2 11.0939 6.28802 3.67887 
17 2 1 10.0021 7.3247 3.44842 
18 2 1 12.3295 4.48868 5.66872 
19 3 1 15.797 12.4907 5.52473 
20 3 3 16.0928 13.0992 6.85971 
21 3 2 15.0481 14.0345 7.39848 
22 3 2 13.7002 13.4083 7.81039 
23 3 1 12.9769 14.2162 8.83879 
24 3 1 17.0646 12.3843 7.79346 
25 4 1 11.2628 -3.25391 9.07388 
26 4 3 11.2394 -2.35949 10.3876 
27 4 2 10.1815 -1.28466 10.1389 
28 4 2 9.5332 -0.610486 11.3175 
29 4 1 8.34573 0.258953 10.9866 
30 4 1 12.5892 -1.63546 10.7784 
31 5 1 1.16554 1.76339 0.859097 
32 5 3 2.27937 1.74746 -0.205514 
33 5 2 3.14143 3.0055 -0.244551 
34 5 2 4.33767 3.08388 -1.25644 
35 5 1 5.29958 4.26378 -1.0689 
36 5 1 3.05168 0.368369 -0.208727 
37 6 1 1.65667 -5.18329 3.01463 
38 6 3 2.10393 -5.1608 1.51973 
39 6 2 2.70607 -3.77675 1.15385 
40 6 2 4.13688 -3.45108 1.49285 
41 6 1 5.1531 -3.63762 0.358518 
42 6 1 1.00897 -5.66194 0.528483 
43 7 1 8.87538 2.34254 7.06291 
44 7 3 7.90571 3.50466 7.23214 
45 7 2 8.51967 4.86984 7.33366 
46 7 2 7.42554 5.93222 7.5637 
47 7 1 8.14686 7.24986 7.87595 
48 7 1 6.93853 3.24782 8.46444 
49 8 1 -7.4705 6.3062 16.6577 
50 8 3 -7.86288 4.84848 16.9127 
51 8 2 -6.81503 3.86551 16.5169 
52 8 2 -7.37868 2.44133 16.5887 
53 8 1 -6.67869 1.42864 15.6598 
54 8 1 -8.31949 4.57653 18.3371 
55 9 1 12.6934 10.9374 3.08067 
56 9 3 11.5289 11.8062 3.47995 
57 9 2 10.7972 11.2686 4.72855 
58 9 2 9.31136 11.5809 4.9065 
59 9 1 8.67946 10.4367 5.64225 
60 9 1 10.5861 11.8648 2.26542 
ITEM: TIMESTEP
252000
ITEM: NUMBER OF ATOMS
60
ITEM: BOX BOUNDS pp pp pp
-1.4495963079849155e+00 1.2066396307984849e+01
-1.4495963079849155e+00 1.2066396307984849e+01
-1.4495963079849155e+00 1.2066396307984849e+01
ITEM: ATOMS id mol type xu yu zu 
1 0 1 -0.934355 5.02159 -2.82996 
2 0 3 -1.25678 5.17728 -1.3283 
3 0 2 -2.75139 4.81075 -1.23031 
4 0 2 -3.79834 5.84088 -1.72129 
5 0 1 -3.95029 7.08412 -0.862882 
6 0 1 -0.5313 4.03836 -0.58656 
7 1 1 4.04423 8.75356 4.72296 
8 1 3 3.22074 8.57112 5.95468 
9 1 2 1.92945 7.65337 5.92607 
10 1 2 0.823138 7.5765 7.07418 
11 1 1 -0.10887 8.75507 7.41842 
12 1 1 4.16154 8.09849 7.07831 
13 2 1 12.6037 6.82702 3.49872 
14 2 3 11.4235 5.84537 3.77495 
15 2 2 10.0693 6.43447 3.36741 
16 2 2 9.45288 7.62034 4.17058 
17 2 1 8.33337 8.4045 3.50609 
18 2 1 11.4508 5.27177 5.17049 
19 3 1 16.0146 13.2291 6.0636 
20 3 3 16.4226 14.3638 6.98393 
21 3 2 15.2294 14.8564 7.86555 
22 3 2 14.4854 13.7008 8.48177 
23 3 1 13.3617 14.0124 9.46246 
24 3 1 17.5515 13.9213 7.97111 
25 4 1 11.2606 -2.91646 10.7192 
26 4 3 10.7891 -3.13546 12.1903 
27 4 2 9.39027 -2.58286 12.4253 
28 4 2 9.08918 -3.19077 13.8063 
29 4 1 7.76966 -2.53209 14.2174 
30 4 1 11.7605 -2.69958 13.2864 
31 5 1 1.48889 0.444728 0.0961829 
32 5 3 2.54653 0.862486 -0.932974 
33 5 2 3.28845 2.22727 -0.742483 
34 5 2 4.1579 2.46622 -1.99335 
35 5 1 4.65864 3.93538 -2.15394 
36 5 1 3.59506 -0.308954 -1.08797 
37 6 1 3.17093 -3.53783 0.732296 
38 6 3 3.76214 -4.67663 -0.0440501 
39 6 2 3.43792 -4.33618 -1.51788 
40 6 2 3.756 -5.39869 -2.58778 
41 6 1 5.2766 -5.77576 -2.57981 
42 6 1 2.9334 -5.84467 0.40657 
43 7 1 9.73104 1.39453 8.48553 
44 7 3 8.65025 2.45761 8.72927 
45 7 2 9.0491 3.89119 8.23675 
46 7 2 7.9771 5.01987 8.1276 
47 7 1 8.40415 6.51089 7.95835 
48 7 1 8.07699 2.47984 10.1592 
49 8 1 -8.12785 5.1629 15.8674 
50 8 3 -8.64713 4.06055 16.8211 
51 8 2 -7.45085 3.57173 17.7274 
52 8 2 -7.46777 2.03296 17.9677 
53 8 1 -6.67205 1.22329 16.958 
54 8 1 -9.78832 4.471 17.8039 
55 9 1 12.1246 12.0023 6.1075 
56 9 3 10.6801 12.2371 5.54738 
57 9 2 9.54095 11.3724 6.04569 
58 9 2 8.4645 11.9388 6.90826 
59 9 1 7.3378 10.9158 7.15523 
60 9 1 10.5198 12.6952 4.06437 
ITEM: TIMESTEP
253000
ITEM: NUMBER OF ATOMS
60
ITEM: BOX BOUNDS pp pp pp
-1.4600749219616054e+00 1.2076874921961604e+01
-1.4600749219616054e+00 1.2076874921961604e+01
-1.4600749219616054e+00 1.2076874921961604e+01
ITEM: ATOMS id mol type xu yu zu 
1 0 1 -2.30383 5.73505 -1.29929 
2 0 3 -1.54793 4.68595 -0.466214 
3 0 2 -1.44132 3.30954 -1.1824 
4 0 2 -2.75332 2.59661 -1.50352 
5 0 1 -3.58325 1.99633 -0.320711 
6 0 1 -0.100412 5.14695 -0.143495 
7 1 1 2.80932 8.63048 5.60614 
8 1 3 2.01422 7.75462 6.5511 
9 1 2 1.08427 8.16182 7.66076 
10 1 2 1.82379 8.89245 8.77873 
11 1 1 1.81299 10.4448 8.57422 
12 1 1 1.89499 6.24257 6.25314 
13 2 1 12.3903 7.08366 3.17621 
14 2 3 11.6666 6.74351 4.45543 
15 2 2 10.2765 6.19683 4.21938 
16 2 2 9.48289 7.29503 3.5128 
17 2 1 8.01452 6.89944 3.36069 
18 2 1 11.378 7.98282 5.36464 
19 3 1 14.6152 14.0743 3.83122 
20 3 3 15.7509 14.2167 4.78897 
21 3 2 15.3507 15.3358 5.81246 
22 3 2 14.2864 14.8987 6.81462 
23 3 1 13.483 16.0936 7.41909 
24 3 1 16.1021 12.8887 5.54176 
25 4 1 12.3918 -0.28679 14.8019 
26 4 3 11.8288 -1.59131 15.3649 
27 4 2 10.3241 -1.4524 15.1072 
28 4 2 9.42391 -2.62524 15.6405 
29 4 1 7.93228 -2.37043 15.4057 
30 4 1 12.0297 -1.68721 16.8357 
31 5 1 3.7433 -0.429275 -2.01626 
32 5 3 4.27678 0.474844 -3.10176 
33 5 2 3.85905 2.01268 -2.9208 
34 5 2 3.7208 2.90406 -4.17629 
35 5 1 3.69842 4.36856 -3.90414 
36 5 1 5.80625 0.275874 -3.14227 
37 6 1 3.05813 -5.87275 1.1941 
38 6 3 3.6373 -6.12853 -0.21449 
39 6 2 5.13084 -5.81843 -0.207231 
40 6 2 5.78804 -6.22039 -1.54618 
41 6 1 6.1704 -7.7001 -1.76449 
42 6 1 2.82019 -5.46422 -1.30987 
43 7 1 9.75273 2.82696 6.69413 
44 7 3 8.50444 3.46483 7.42907 
45 7 2 8.43134 5.02059 7.36542 
46 7 2 7.26782 5.58677 8.14062 
47 7 1 6.93594 7.03705 7.86404 
48 7 1 8.62565 2.82975 8.76859 
49 8 1 -10.3194 3.22762 14.3483 
50 8 3 -9.39315 3.58845 15.5405 
51 8 2 -7.87618 3.61465 15.1806 
52 8 2 -7.04257 2.5216 15.8551 
53 8 1 -7.0043 2.52398 17.4298 
54 8 1 -9.85855 4.84593 16.2538 
55 9 1 8.5839 12.7676 5.94641 
56 9 3 9.17492 11.6235 6.73303 
57 9 2 9.59136 12.1337 8.10459 
58 9 2 10.371 11.0102 8.88228 
59 9 1 10.2257 11.0925 10.4143 
60 9 1 8.00806 10.7086 7.09201 
ITEM: TIMESTEP
254000
ITEM: NUMBER OF ATOMS
60
ITEM: BOX BOUNDS pp pp pp
-1.3415797536733471e+00 1.1958379753673320e+01
-1.3415797536733471e+00 1.1958379753673320e+01
-1.3415797536733471e+00 1.1958379753673320e+01
ITEM: ATOMS id mol type xu yu zu 
1 0 1 -2.98087 6.07681 0.389301 
2 0 3 -2.1128 5.73822 -0.820389 
3 0 2 -1.33345 4.42123 -0.677348 
4 0 2 -0.546441 4.40649 0.653866 
5 0 1 0.760991 5.13974 0.448494 
6 0 1 -2.68983 6.05392 -2.20216 
7 1 1 1.37536 4.46545 5.57008 
8 1 3 2.30008 5.61691 5.32901 
9 1 2 1.90594 6.77353 6.27389 
10 1 2 3.01197 7.6774 6.89004 
11 1 1 2.53878 8.64441 7.92816 
12 1 1 3.79059 5.19986 5.38986 
13 2 1 11.1749 6.38589 5.52821 
14 2 3 10.5317 7.11477 4.35839 
15 2 2 9.54416 8.32048 4.50236 
16 2 2 8.87998 8.71378 3.19553 
17 2 1 7.5011 9.33318 3.29717 
18 2 1 11.6888 7.54479 3.40007 
19 3 1 18.0686 11.6571 5.7068 
20 3 3 17.5103 12.7652 4.8762 
21 3 2 15.9581 12.7208 4.60818 
22 3 2 15.0868 12.5199 5.82712 
23 3 1 13.5608 12.7513 5.64599 
24 3 1 18.0476 14.1121 5.45943 
25 4 1 12.8591 -1.86655 14.6823 
26 4 3 11.5259 -1.12385 14.82 
27 4 2 10.463 -1.92945 14.0957 
28 4 2 9.08577 -1.34192 14.3367 
29 4 1 8.01634 -1.89381 13.3906 
30 4 1 11.5907 0.356553 14.6072 
31 5 1 0.83268 0.503053 -1.5665 
32 5 3 2.09241 0.572297 -2.46348 
33 5 2 2.27888 1.87977 -3.15991 
34 5 2 3.50946 2.06478 -4.02838 
35 5 1 3.40675 3.2357 -4.97898 
36 5 1 3.32249 0.0915573 -1.63711 
37 6 1 2.66234 -4.66959 1.62455 
38 6 3 2.96706 -4.8391 0.105128 
39 6 2 4.3047 -5.5772 -0.117113 
40 6 2 4.50369 -6.0546 -1.54216 
41 6 1 4.20823 -7.48621 -1.71285 
42 6 1 2.9245 -3.48236 -0.599491 
43 7 1 9.28749 2.79783 7.882 
44 7 3 8.04577 3.49247 8.60232 
45 7 2 8.07443 4.9823 8.36884 
46 7 2 6.74626 5.70346 8.76527 
47 7 1 6.48234 7.19733 8.518 
48 7 1 7.93969 3.15946 10.0522 
49 8 1 -8.03169 1.96404 14.1079 
50 8 3 -8.47542 2.87225 15.2733 
51 8 2 -7.69848 4.17227 15.1948 
52 8 2 -6.2151 4.11403 15.5995 
53 8 1 -5.95847 4.42264 17.0678 
54 8 1 -9.9031 3.32225 15.1609 
55 9 1 8.38764 10.3703 8.0235 
56 9 3 9.09773 11.6882 7.81467 
57 9 2 10.1362 11.9833 8.8977 
58 9 2 9.52137 12.8142 9.96672 
59 9 1 10.3886 13.329 11.1012 
60 9 1 9.7993 11.8219 6.43375 
ITEM: TIMESTEP
255000
ITEM: NUMBER OF ATOMS
60
ITEM: BOX BOUNDS pp pp pp
-1.6018660943899183e+00 1.2218666094389949e+01
-1.6018660943899183e+00 1.2218666094389949e+01
-1.6018660943899183e+00 1.2218666094389949e+01
ITEM: ATOMS id mol type xu yu zu 
1 0 1 -3.93272 6.66172 -0.119432 
2 0 3 -2.63716 7.00439 -0.8491 
3 0 2 -1.82514 5.75375 -1.08167 
4 0 2 -1.83094 4.8441 0.144987 
5 0 1 -0.571837 5.25881 0.923719 
6 0 1 -2.76385 7.80733 -2.17507 
7 1 1 0.345341 3.53836 5.88419 
8 1 3 1.36783 4.61278 6.21248 
9 1 2 0.797472 5.17656 7.50528 
10 1 2 -0.558278 5.79207 7.35013 
11 1 1 -0.85434 6.72253 8.53075 
12 1 1 2.84024 4.13361 6.33506 
13 2 1 9.46404 9.22577 6.91045 
14 2 3 9.61652 8.25926 5.73243 
15 2 2 9.12837 8.87548 4.39903 
16 2 2 7.63179 8.77663 4.27015 
17 2 1 7.35817 9.70899 3.09379 
18 2 1 11.1109 7.87222 5.47064 
19 3 1 19.8143 14.4434 7.40308 
20 3 3 20.1557 13.3702 6.42329 
21 3 2 18.9583 12.3936 6.2897 
22 3 2 17.6075 12.6681 5.57757 
23 3 1 16.4629 11.7255 5.85906 
24 3 1 20.5683 13.8104 5.0237 
25 4 1 11.2766 -1.3621 14.1526 
26 4 3 9.87961 -2.02615 13.982 
27 4 2 9.56511 -1.94694 12.4718 
28 4 2 8.6543 -3.03005 11.9343 
29 4 1 8.127 -2.87941 10.5286 
30 4 1 8.66975 -1.5524 14.7703 
31 5 1 2.32532 -1.09723 -0.684131 
32 5 3 2.72861 -0.575251 -2.07015 
33 5 2 3.64449 0.665367 -2.08434 
34 5 2 3.68591 1.35855 -3.48166 
35 5 1 4.73985 2.51674 -3.72952 
36 5 1 3.54274 -1.59922 -2.90863 
37 6 1 2.74597 -5.16157 -0.398646 
38 6 3 2.4524 -6.53087 -1.02376 
39 6 2 3.66341 -7.26967 -1.64719 
40 6 2 3.20516 -8.58594 -2.28146 
41 6 1 2.84291 -9.58024 -1.13551 
42 6 1 1.31984 -6.33478 -1.98867 
43 7 1 8.13009 4.72618 8.93065 
44 7 3 7.64885 5.64382 7.74578 
45 7 2 6.52678 6.4853 8.46734 
46 7 2 5.78769 7.51119 7.6585 
47 7 1 5.05678 8.57675 8.48619 
48 7 1 7.19431 4.80004 6.63178 
49 8 1 -7.17273 2.97489 13.4565 
50 8 3 -7.08585 2.10753 14.7535 
51 8 2 -7.12183 2.95506 16.0005 
52 8 2 -5.88495 3.83463 16.1652 
53 8 1 -4.5485 3.19026 16.523 
54 8 1 -8.14732 1.02044 14.8551 
55 9 1 12.1929 12.2118 8.70348 
56 9 3 11.3401 13.4657 8.75871 
57 9 2 11.9877 14.7529 9.34134 
58 9 2 12.4834 14.7246 10.8035 
59 9 1 11.615 15.4886 11.7328 
60 9 1 10.7407 13.5724 7.32279 
ITEM: TIMESTEP
256000
ITEM: NUMBER OF ATOMS
60
ITEM: BOX BOUNDS pp pp pp
-1.6345511654109455e+00 1.2251351165410998e+01
-1.6345511654109455e+00 1.2251351165410998e+01
-1.6345511654109455e+00 1.2251351165410998e+01
ITEM: ATOMS id mol type xu yu zu 
1 0 1 -2.73662 7.06556 0.565564 
2 0 3 -1.87825 6.019 -0.106466 
3 0 2 -2.88742 5.48903 -1.14364 
4 0 2 -2.62275 4.05251 -1.58071 
5 0 1 -1.68618 3.93343 -2.77976 
6 0 1 -0.590016 6.61643 -0.690743 
7 1 1 0.260232 4.4038 7.58012 
8 1 3 1.80059 4.55839 7.4024 
9 1 2 2.0929 5.86022 8.1501 
10 1 2 1.37673 7.09827 7.60108 
11 1 1 1.94774 8.30313 8.37637 
12 1 1 2.50218 3.46697 8.21144 
13 2 1 9.73475 9.07215 4.68881 
14 2 3 9.32994 9.99105 3.53842 
15 2 2 7.8308 9.97987 3.34955 
16 2 2 7.30185 8.57001 3.72281 
17 2 1 5.80893 8.25285 3.61841 
18 2 1 9.73971 11.5285 3.66178 
19 3 1 18.3931 13.127 6.88413 
20 3 3 19.1869 13.5895 5.70974 
21 3 2 18.3413 14.227 4.64069 
22 3 2 17.7093 15.5531 4.96995 
23 3 1 16.7528 16.1751 3.91452 
24 3 1 20.5345 14.3081 6.16095 
25 4 1 7.50601 -1.08839 12.6689 
26 4 3 7.66032 -2.50784 12.056 
27 4 2 7.41112 -2.28941 10.5779 
28 4 2 8.17457 -3.26021 9.68649 
29 4 1 8.42544 -2.86607 8.22719 
30 4 1 6.74235 -3.5584 12.8188 
31 5 1 2.9923 -1.46678 1.67252 
32 5 3 2.94717 -1.41414 0.181736 
33 5 2 3.69873 -0.199327 -0.447702 
34 5 2 3.53666 0.0693978 -1.98281 
35 5 1 4.69909 0.853127 -2.59325 
36 5 1 3.48825 -2.7698 -0.254869 
37 6 1 3.71983 -8.24515 1.6782 
38 6 3 3.4854 -7.98162 0.189453 
39 6 2 4.22082 -9.05331 -0.605212 
40 6 2 3.77518 -9.0766 -2.1034 
41 6 1 2.41885 -9.7931 -2.27001 
42 6 1 3.73566 -6.55508 -0.240258 
43 7 1 7.7071 4.13947 10.0655 
44 7 3 7.54579 5.25744 8.93754 
45 7 2 6.61229 6.24852 9.63106 
46 7 2 6.25676 7.53528 8.81761 
47 7 1 5.30099 8.50927 9.50252 
48 7 1 7.05133 4.68188 7.60527 
49 8 1 -6.37454 3.43358 14.3771 
50 8 3 -6.53783 2.79721 15.7846 
51 8 2 -6.7275 3.98466 16.7464 
52 8 2 -5.82176 5.2203 16.5118 
53 8 1 -4.53519 5.25697 17.3422 
54 8 1 -7.62737 1.69162 15.8962 
55 9 1 12.6174 12.3095 6.84344 
56 9 3 12.4001 13.7084 7.39351 
57 9 2 12.4372 13.7054 8.9515 
58 9 2 11.0472 13.611 9.66654 
59 9 1 10.0154 14.7473 9.21412 
60 9 1 13.7393 14.3743 7.04709 
ITEM: TIMESTEP
257000
ITEM: NUMBER OF ATOMS
60
ITEM: BOX BOUNDS pp pp pp
-1.4631497106919165e+00 1.2079949710691974e+01
-1.4631497106919165e+00 1.2079949710691974e+01
-1.4631497106919165e+00 1.2079949710691974e+01
ITEM: ATOMS id mol type xu yu zu 
1 0 1 -2.05657 5.51075 3.07726 
2 0 3 -0.958504 5.22212 2.07527 
3 0 2 -0.148503 6.41805 1.58862 
4 0 2 0.417877 6.00044 0.217185 
5 0 1 -0.777217 5.5259 -0.691359 
6 0 1 -0.109739 3.97339 2.31839 
7 1 1 1.2735 5.91319 5.48935 
8 1 3 0.891579 6.24197 6.97047 
9 1 2 -0.565767 6.03717 7.18811 
10 1 2 -1.33192 7.31418 6.65942 
11 1 1 -0.552153 8.58828 7.08985 
12 1 1 1.52545 5.28704 7.98816 
13 2 1 10.6089 10.4639 2.68686 
14 2 3 9.31491 10.9858 3.2134 
15 2 2 7.9547 10.3539 2.88883 
16 2 2 6.82096 11.3262 3.17596 
17 2 1 5.47728 11.1405 2.48361 
18 2 1 9.42258 11.5348 4.64923 
19 3 1 19.817 13.0997 7.43082 
20 3 3 20.055 14.4594 8.03728 
21 3 2 19.3509 15.517 7.2166 
22 3 2 17.872 15.2899 7.0682 
23 3 1 17.4176 16.1731 5.86268 
24 3 1 19.7278 14.5868 9.5779 
25 4 1 8.58452 -5.67535 11.9124 
26 4 3 8.28614 -4.31157 11.3218 
27 4 2 9.07164 -4.24603 10.0059 
28 4 2 9.12105 -2.89333 9.33819 
29 4 1 9.89871 -2.91144 7.97853 
30 4 1 8.71885 -3.22794 12.3512 
31 5 1 -0.521796 -4.09026 -2.11701 
32 5 3 0.886511 -3.41889 -2.12275 
33 5 2 1.0075 -2.10117 -1.35378 
34 5 2 2.16431 -1.20732 -1.62949 
35 5 1 2.63786 -0.215918 -0.553699 
36 5 1 2.03781 -4.44311 -1.90524 
37 6 1 4.14687 -5.98761 1.2213 
38 6 3 4.05946 -7.55244 0.923659 
39 6 2 4.75366 -8.44137 2.00965 
40 6 2 4.74615 -9.93772 1.76738 
41 6 1 3.35411 -10.5322 2.04985 
42 6 1 4.67019 -7.82582 -0.480124 
43 7 1 6.33768 6.29789 8.78718 
44 7 3 5.60672 7.15742 7.75614 
45 7 2 4.5537 8.08609 8.46128 
46 7 2 4.11764 9.10527 7.43769 
47 7 1 2.8611 9.99825 7.81396 
48 7 1 5.21557 6.38597 6.49801 
49 8 1 -5.26465 3.79736 13.5468 
50 8 3 -4.8401 2.34036 13.6828 
51 8 2 -5.37499 1.7729 14.9846 
52 8 2 -4.78844 2.48744 16.2174 
53 8 1 -3.50864 1.72329 16.7042 
54 8 1 -5.43516 1.65038 12.5348 
55 9 1 13.9968 14.1282 7.99473 
56 9 3 12.9077 13.1942 7.50536 
57 9 2 11.7279 14.0613 7.04482 
58 9 2 11.3905 15.0873 8.07964 
59 9 1 10.1315 14.7285 8.88498 
60 9 1 13.1764 12.4008 6.22342 
ITEM: TIMESTEP
258000
ITEM: NUMBER OF ATOMS
60
ITEM: BOX BOUNDS pp pp pp
-1.5185874648265685e+00 1.2135387464826596e+01
-1.5185874648265685e+00 1.2135387464826596e+01
-1.5185874648265685e+00 1.2135387464826596e+01
ITEM: ATOMS id mol type xu yu zu 
1 0 1 -4.41179 4.03861 0.837321 
2 0 3 -2.9043 3.91502 0.8675 
3 0 2 -2.16092 5.2048 0.536197 
4 0 2 -0.834988 5.01066 -0.205221 
5 0 1 -1.08405 4.60321 -1.6533 
6 0 1 -2.50734 3.48342 2.29648 
7 1 1 3.23429 5.37415 5.56946 
8 1 3 1.96543 5.46221 6.38996 
9 1 2 0.654877 5.2661 5.57567 
10 1 2 -0.0101926 6.49061 4.90565 
11 1 1 -0.438016 7.56494 5.91043 
12 1 1 2.0884 4.52461 7.60411 
13 2 1 11.3101 10.1304 4.01204 
14 2 3 9.83232 10.1127 4.14165 
15 2 2 9.11908 9.78052 2.83613 
16 2 2 7.60603 10.1255 2.6457 
17 2 1 7.20758 9.90615 1.1931 
18 2 1 9.52517 9.07519 5.23048 
19 3 1 19.8798 16.0429 10.6385 
20 3 3 18.7354 16.763 9.94085 
21 3 2 19.2838 17.6371 8.78061 
22 3 2 19.9011 16.717 7.70941 
23 3 1 20.3438 17.4788 6.44782 
24 3 1 17.6972 15.7975 9.35671 
25 4 1 7.27211 -5.83443 11.9331 
26 4 3 8.59289 -5.24131 11.4699 
27 4 2 8.6068 -4.87235 9.99202 
28 4 2 9.7764 -3.96072 9.63265 
29 4 1 9.71612 -3.08403 8.40887 
30 4 1 9.92817 -5.96779 11.9255 
31 5 1 0.637354 -1.87591 -2.56251 
32 5 3 1.24598 -2.22416 -1.16952 
33 5 2 0.311897 -1.79074 -0.031533 
34 5 2 0.841114 -1.80475 1.38577 
35 5 1 -0.216657 -1.2869 2.37777 
36 5 1 1.57151 -3.75363 -1.07544 
37 6 1 4.46654 -6.58824 1.85524 
38 6 3 3.63538 -7.73984 1.42869 
39 6 2 4.3319 -9.03248 1.84678 
40 6 2 3.60689 -10.3766 1.55186 
41 6 1 2.37249 -10.6733 2.45109 
42 6 1 3.23653 -7.71102 -0.0125967 
43 7 1 3.66716 9.12772 8.77393 
44 7 3 5.02402 9.45058 8.08709 
45 7 2 5.11073 10.9616 7.7482 
46 7 2 6.40498 11.5047 7.20529 
47 7 1 6.53758 13.0435 7.08675 
48 7 1 5.16169 8.55452 6.85886 
49 8 1 -3.95258 1.33909 11.7894 
50 8 3 -3.68939 0.0197211 12.6624 
51 8 2 -4.8814 -0.600912 13.4418 
52 8 2 -5.41753 0.132228 14.6912 
53 8 1 -4.41468 0.445829 15.8503 
54 8 1 -3.22872 -1.06218 11.7156 
55 9 1 13.1965 15.1488 9.09733 
56 9 3 12.4518 14.6721 7.79755 
57 9 2 11.9915 15.8412 6.89188 
58 9 2 10.5495 16.4456 7.10043 
59 9 1 10.4516 17.0749 8.46732 
60 9 1 12.9321 13.3043 7.20924 
ITEM: TIMESTEP
259000
ITEM: NUMBER OF ATOMS
60
ITEM: BOX BOUNDS pp pp pp
-1.3750448052028510e+00 1.1991844805202899e+01
-1.3750448052028510e+00 1.1991844805202899e+01
-1.3750448052028510e+00 1.1991844805202899e+01
ITEM: ATOMS id mol type xu yu zu 
1 0 1 -3.29149 4.30981 2.24044 
2 0 3 -1.91614 4.04497 1.60306 
3 0 2 -0.929365 5.26088 1.60933 
4 0 2 0.388208 4.96154 0.841766 
5 0 1 0.274898 4.88342 -0.70903 
6 0 1 -1.29642 2.8178 2.37113 
7 1 1 1.9638 5.2215 7.49171 
8 1 3 1.23919 5.07727 6.13186 
9 1 2 1.20537 6.43506 5.29683 
10 1 2 0.393331 7.45066 6.04181 
11 1 1 -1.1025 7.17764 5.91287 
12 1 1 1.63696 3.85687 5.24917 
13 2 1 7.21809 10.835 3.96368 
14 2 3 6.59444 9.5852 3.30377 
15 2 2 6.57709 9.4802 1.77194 
16 2 2 5.70189 8.34278 1.15291 
17 2 1 5.92016 8.04161 -0.346928 
18 2 1 7.13284 8.22261 3.80752 
19 3 1 18.8886 15.7815 10.8081 
20 3 3 17.8875 16.879 10.261 
21 3 2 18.6756 18.0939 9.72166 
22 3 2 19.494 17.8756 8.42567 
23 3 1 20.1926 19.0277 7.81846 
24 3 1 17.1374 16.2005 9.15223 
25 4 1 11.0351 -2.96169 8.39761 
26 4 3 11.5936 -3.3198 9.72729 
27 4 2 12.8597 -4.24347 9.5784 
28 4 2 14.0921 -3.77187 10.4003 
29 4 1 14.0184 -4.10843 11.9214 
30 4 1 10.4924 -4.00374 10.594 
31 5 1 2.06803 -2.36974 1.7313 
32 5 3 0.933936 -3.24073 2.31669 
33 5 2 -0.436755 -3.05514 1.55499 
34 5 2 -1.6718 -3.88139 2.09356 
35 5 1 -2.927 -3.56512 1.27394 
36 5 1 1.41009 -4.724 2.27899 
37 6 1 5.95432 -9.55089 3.83099 
38 6 3 5.65906 -9.87798 2.3106 
39 6 2 5.84659 -11.4318 2.117 
40 6 2 4.84137 -11.9377 1.01468 
41 6 1 3.32437 -12.0141 1.42339 
42 6 1 6.488 -8.96976 1.32215 
43 7 1 3.34404 13.8375 5.53859 
44 7 3 4.49253 12.9039 6.06071 
45 7 2 4.02501 12.1524 7.38206 
46 7 2 5.23121 11.3457 8.03954 
47 7 1 4.96077 10.6798 9.35849 
48 7 1 5.84258 13.6669 6.25215 
49 8 1 -3.79317 0.347338 10.3017 
50 8 3 -4.10521 0.663968 11.8175 
51 8 2 -4.2125 -0.528126 12.7447 
52 8 2 -5.3565 -1.52836 12.4222 
53 8 1 -6.76693 -1.00935 12.2395 
54 8 1 -3.19756 1.7821 12.2216 
55 9 1 12.1842 14.5178 5.89688 
56 9 3 11.0678 15.135 6.80382 
57 9 2 11.0584 16.6627 6.59208 
58 9 2 10.4583 17.4442 7.74197 
59 9 1 11.3324 17.4965 9.02988 
60 9 1 9.6983 14.536 6.43946 
ITEM: TIMESTEP
260000
ITEM: NUMBER OF ATOMS
60
ITEM: BOX BOUNDS pp pp pp
-1.5639951449485459e+00 1.2180795144948570e+01
-1.5639951449485459e+00 1.2180795144948570e+01
-1.5639951449485459e+00 1.2180795144948570e+01
ITEM: ATOMS id mol type xu yu zu 
1 0 1 -1.08464 4.39113 2.57372 
2 0 3 -0.234253 3.42842 1.80334 
3 0 2 0.828303 4.31857 1.12613 
4 0 2 2.0339 3.5446 0.541071 
5 0 1 1.67718 2.86279 -0.830926 
6 0 1 0.439693 2.35463 2.70541 
7 1 1 -0.181716 4.34469 7.5498 
8 1 3 0.0886046 4.78615 6.12296 
9 1 2 0.123888 6.2978 5.94867 
10 1 2 -1.09093 6.95867 6.67533 
11 1 1 -1.05661 8.47431 6.39638 
12 1 1 1.37621 4.09553 5.5494 
13 2 1 4.4288 7.38984 3.33104 
14 2 3 5.1666 7.35181 1.95402 
15 2 2 6.35856 8.34359 1.69597 
16 2 2 6.93152 8.28256 0.263552 
17 2 1 8.33881 8.80033 0.206024 
18 2 1 5.40611 5.90557 1.49761 
19 3 1 20.029 19.8562 11.2841 
20 3 3 19.958 19.0184 10.0148 
21 3 2 19.0423 19.5616 8.98516 
22 3 2 19.5453 20.9845 8.51923 
23 3 1 18.5199 21.4782 7.47609 
24 3 1 21.3271 18.9199 9.45553 
25 4 1 13.48 -3.64669 12.8363 
26 4 3 13.3682 -5.01347 12.1896 
27 4 2 14.6138 -5.35102 11.3138 
28 4 2 15.9484 -5.10684 12.0195 
29 4 1 16.0727 -6.20944 13.0866 
30 4 1 11.9765 -5.20507 11.5331 
31 5 1 -1.99044 -0.962544 2.95634 
32 5 3 -1.3441 -2.38194 2.97987 
33 5 2 -2.12177 -3.52546 2.22373 
34 5 2 -1.44398 -4.92081 2.36037 
35 5 1 -2.12605 -6.09157 1.66705 
36 5 1 0.0884785 -2.35855 2.30054 
37 6 1 6.94345 -11.0823 1.14823 
38 6 3 6.62019 -12.5636 1.01195 
39 6 2 5.4555 -12.8254 0.0717194 
40 6 2 4.76092 -14.2148 0.128838 
41 6 1 5.39129 -15.3589 -0.640932 
42 6 1 6.3184 -12.9962 2.44476 
43 7 1 1.64703 14.5286 7.40358 
44 7 3 3.09977 13.9295 7.54634 
45 7 2 3.27188 12.5433 8.28104 
46 7 2 4.81004 12.1152 8.34096 
47 7 1 5.07702 10.8574 9.16316 
48 7 1 3.84877 14.9487 8.36978 
49 8 1 -3.76814 2.83594 12.6366 
50 8 3 -3.78818 1.18281 12.5364 
51 8 2 -3.5096 0.617105 11.077 
52 8 2 -4.61351 0.753796 10.0422 
53 8 1 -5.82037 0.15295 10.8341 
54 8 1 -2.96477 0.423308 13.6368 
55 9 1 10.4998 15.7008 5.96296 
56 9 3 9.17779 16.5318 5.93785 
57 9 2 9.31716 17.7045 4.87747 
58 9 2 8.41339 18.997 5.00942 
59 9 1 9.21629 20.3002 5.3623 
60 9 1 7.87281 15.7038 5.93722 
ITEM: TIMESTEP
261000
ITEM: NUMBER OF ATOMS
60
ITEM: BOX BOUNDS pp pp pp
-1.3542752845299892e+00 1.1971075284530013e+01
-1.3542752845299892e+00 1.1971075284530013e+01
-1.3542752845299892e+00 1.1971075284530013e+01
ITEM: ATOMS id mol type xu yu zu 
1 0 1 0.549797 5.2996 1.31525 
2 0 3 1.19847 4.37442 0.24994 
3 0 2 2.25497 5.19623 -0.525574 
4 0 2 2.94164 4.34916 -1.58541 
5 0 1 1.96564 3.62105 -2.49919 
6 0 1 1.77974 3.02422 0.901418 
7 1 1 1.27535 4.16671 7.31273 
8 1 3 0.961598 5.5885 6.94629 
9 1 2 2.1772 6.45689 7.21475 
10 1 2 1.89572 7.99198 7.07502 
11 1 1 2.92969 8.83937 7.84766 
12 1 1 0.449375 5.79232 5.50606 
13 2 1 4.50483 9.85481 4.54399 
14 2 3 4.742 8.73375 3.52522 
15 2 2 6.13025 8.05133 3.5532 
16 2 2 6.36128 6.86385 2.60279 
17 2 1 6.43594 7.15369 1.05945 
18 2 1 3.61132 7.73936 3.4474 
19 3 1 19.979 18.3377 10.2511 
20 3 3 19.4879 19.4546 9.23469 
21 3 2 19.3372 18.7593 7.90984 
22 3 2 18.5314 17.4387 7.7518 
23 3 1 18.3864 16.8449 6.31034 
24 3 1 18.0818 19.9375 9.66957 
25 4 1 10.9962 -4.86233 9.94982 
26 4 3 11.2716 -5.36772 11.353 
27 4 2 12.6839 -5.47192 11.8623 
28 4 2 13.3926 -4.11618 11.8348 
29 4 1 12.8048 -3.09449 12.7768 
30 4 1 10.5549 -6.73116 11.5475 
31 5 1 -1.58526 -0.795614 6.25993 
32 5 3 -0.934277 -1.85635 5.36053 
33 5 2 -1.98449 -2.50639 4.41882 
34 5 2 -1.37833 -3.48829 3.4295 
35 5 1 -2.46477 -4.27492 2.66214 
36 5 1 0.00919975 -0.955634 4.50321 
37 6 1 5.52091 -11.8292 0.580306 
38 6 3 5.57859 -13.3347 0.916504 
39 6 2 6.72927 -14.0763 0.128106 
40 6 2 7.39991 -15.2103 0.951595 
41 6 1 7.91083 -14.8208 2.38269 
42 6 1 4.19524 -13.9664 0.642537 
43 7 1 0.493832 11.854 9.47419 
44 7 3 1.62717 12.9136 9.26678 
45 7 2 2.55239 12.6221 8.05325 
46 7 2 3.95417 13.1933 8.04647 
47 7 1 4.57872 12.6523 6.68395 
48 7 1 2.5054 13.1733 10.4968 
49 8 1 -1.08992 1.81284 10.0965 
50 8 3 -2.2712 1.4546 10.9662 
51 8 2 -2.53282 -0.0528288 10.8059 
52 8 2 -3.08079 -0.665863 9.4708 
53 8 1 -4.49336 -0.0785823 9.23626 
54 8 1 -2.27159 1.88217 12.3904 
55 9 1 9.99565 15.5583 3.55427 
56 9 3 9.1179 16.5332 4.35706 
57 9 2 9.75094 17.8927 4.55363 
58 9 2 9.08242 18.6545 5.72491 
59 9 1 9.73561 19.862 6.43152 
60 9 1 7.67349 16.5434 3.82405 
ITEM: TIMESTEP
262000
ITEM: NUMBER OF ATOMS
60
ITEM: BOX BOUNDS pp pp pp
-1.4042001743172001e+00 1.2021000174317251e+01
-1.4042001743172001e+00 1.2021000174317251e+01
-1.4042001743172001e+00 1.2021000174317251e+01
ITEM: ATOMS id mol type xu yu zu 
1 0 1 3.26732 5.7596 -0.386839 
2 0 3 2.59457 4.74996 0.551279 
3 0 2 2.26191 3.50164 -0.253616 
4 0 2 1.85356 2.30293 0.58271 
5 0 1 0.38248 2.46991 1.0738 
6 0 1 3.5488 4.37901 1.69952 
7 1 1 -1.32443 5.44451 2.87675 
8 1 3 -0.7874 6.62648 3.639 
9 1 2 -1.27435 6.52708 5.16226 
10 1 2 -1.07705 7.79679 5.97935 
11 1 1 -1.47953 7.37847 7.4477 
12 1 1 0.698085 6.86162 3.45046 
13 2 1 7.13066 9.05321 6.1694 
14 2 3 5.63847 9.29931 5.71605 
15 2 2 5.11912 7.87352 5.2654 
16 2 2 5.06524 7.67114 3.71582 
17 2 1 6.38463 7.50787 2.96373 
18 2 1 4.79746 9.74713 6.9525 
19 3 1 18.9393 17.1314 10.628 
20 3 3 19.4623 18.3865 9.80866 
21 3 2 18.6267 18.5396 8.50395 
22 3 2 17.1551 18.9799 8.71882 
23 3 1 16.1845 18.3819 7.73119 
24 3 1 19.4718 19.6686 10.6867 
25 4 1 9.95869 -6.8896 13.1061 
26 4 3 10.947 -6.16958 12.1654 
27 4 2 11.615 -4.76012 12.4561 
28 4 2 12.8395 -4.76845 13.3917 
29 4 1 14.1708 -5.21414 12.6951 
30 4 1 10.3664 -6.12615 10.7016 
31 5 1 0.57521 -0.563514 3.04031 
32 5 3 -0.642002 -1.43678 2.71245 
33 5 2 -1.64091 -1.46437 3.8603 
34 5 2 -2.46716 -2.79283 3.81281 
35 5 1 -3.23864 -3.00385 5.16757 
36 5 1 -1.40861 -0.942873 1.44151 
37 6 1 4.66638 -13.1874 3.74746 
38 6 3 5.29207 -14.3222 2.92888 
39 6 2 6.7592 -13.9958 2.62536 
40 6 2 7.69409 -15.2071 2.41784 
41 6 1 7.81228 -15.6724 0.947275 
42 6 1 4.49693 -14.5522 1.65875 
43 7 1 6.95801 11.2501 10.0743 
44 7 3 5.97149 12.3996 9.94051 
45 7 2 5.69715 12.9196 8.58501 
46 7 2 4.48977 13.8022 8.64881 
47 7 1 3.95097 14.0608 7.23079 
48 7 1 4.83022 12.2501 10.9016 
49 8 1 -0.698333 0.0551779 7.38622 
50 8 3 -1.80475 0.404095 8.53192 
51 8 2 -1.47024 1.69652 9.30261 
52 8 2 -2.58206 2.26264 10.1536 
53 8 1 -2.26576 3.59523 10.9088 
54 8 1 -3.17255 0.282894 7.83111 
55 9 1 9.78656 15.5839 1.58865 
56 9 3 8.57945 16.4244 2.10575 
57 9 2 8.98338 17.2117 3.40344 
58 9 2 7.89475 17.9269 4.15908 
59 9 1 8.31463 18.3766 5.6073 
60 9 1 8.00796 17.1822 0.887816 
ITEM: TIMESTEP
263000
ITEM: NUMBER OF ATOMS
60
ITEM: BOX BOUNDS pp pp pp
-1.3193466134407794e+00 1.1936146613440854e+01
-1.3193466134407794e+00 1.1936146613440854e+01
-1.3193466134407794e+00 1.1936146613440854e+01
ITEM: ATOMS id mol type xu yu zu 
1 0 1 3.70285 4.90902 0.673818 
2 0 3 3.27091 4.49042 2.05067 
3 0 2 1.96621 3.71806 1.92055 
4 0 2 1.64342 3.03294 3.27686 
5 0 1 0.296981 2.34184 3.50984 
6 0 1 4.26622 3.70218 2.94527 
7 1 1 -3.61956 5.8555 7.07057 
8 1 3 -2.3892 6.68876 6.55558 
9 1 2 -1.66792 7.49586 7.65692 
10 1 2 -0.396543 8.37652 7.35391 
11 1 1 -0.0234306 9.05402 8.63507 
12 1 1 -1.26637 6.07298 5.60525 
13 2 1 6.71213 7.81911 5.33011 
14 2 3 5.53492 8.47658 4.57167 
15 2 2 5.13586 7.7575 3.30382 
16 2 2 5.12125 8.61924 2.05485 
17 2 1 6.50689 9.00397 1.55442 
18 2 1 4.41058 8.65661 5.5234 
19 3 1 17.6771 18.0404 10.3876 
20 3 3 17.8497 19.1259 9.23507 
21 3 2 18.3806 18.7235 7.87849 
22 3 2 17.5831 17.7581 7.0028 
23 3 1 16.1831 18.2082 6.62181 
24 3 1 16.9167 20.4189 9.24491 
25 4 1 10.0488 -3.78706 12.9516 
26 4 3 10.5257 -5.08476 12.3564 
27 4 2 12.0475 -5.21116 12.4451 
28 4 2 12.611 -5.71301 13.727 
29 4 1 12.6064 -7.21654 13.7121 
30 4 1 9.99605 -5.01844 10.9061 
31 5 1 1.01824 -2.20021 4.82175 
32 5 3 -0.376981 -2.58701 4.406 
33 5 2 -1.3355 -1.3568 4.21692 
34 5 2 -2.79821 -1.77944 4.43188 
35 5 1 -3.75077 -0.571498 4.17432 
36 5 1 -0.323423 -3.42673 3.11141 
37 6 1 4.89476 -13.1501 3.4703 
38 6 3 5.12584 -13.7283 2.03406 