ITEM: TIMESTEP
250000
ITEM: NUMBER OF ATOMS
60
ITEM: BOX BOUNDS pp pp pp
0.0000000000000000e+00 1.0616800000000000e+01
0.0000000000000000e+00 1.0616800000000000e+01
0.0000000000000000e+00 1.0616800000000000e+01
ITEM: ATOMS id mol type x y z 
1 0 1 10.1089 3.4244 0.036097 
2 0 3 10.3261 4.90429 10.56 
3 0 2 9.02545 5.37754 0.54196 
4 0 2 8.95793 6.71419 1.16362 
5 0 1 7.61986 7.32796 1.12138 
6 0 1 10.2001 5.14782 9.12614 
7 1 1 2.92565 8.87259 7.59171 
8 1 3 3.01148 7.52055 8.3391 
9 1 2 3.92155 6.52628 7.69217 
10 1 2 3.24635 5.18783 7.86253 
11 1 1 2.00303 5.36561 7.10829 
12 1 1 3.90499 7.80498 9.50692 
13 2 1 1.57719 4.04879 3.85154 
14 2 3 10.5983 4.02971 3.77461 
15 2 2 10.1544 5.51661 4.01087 
16 2 2 10.0558 5.95877 5.42304 
17 2 1 10.023 7.47689 5.68839 
18 2 1 9.90476 3.2266 4.75609 
19 3 1 3.31837 10.6146 4.87223 
20 3 3 3.96477 1.15385 5.58954 
21 3 2 3.05805 2.21796 6.24733 
22 3 2 2.10584 1.50776 7.21213 
23 3 1 0.775023 2.16302 7.60775 
24 3 1 4.92002 0.584442 6.61436 
25 4 1 10.3028 9.88539 7.65253 
26 4 3 10.3109 9.95117 9.07372 
27 4 2 9.18895 0.259206 9.43694 
28 4 2 7.97971 9.94683 9.63696 
29 4 1 6.58406 10.5016 9.29916 
30 4 1 10.3924 8.55517 9.4967 
31 5 1 2.85951 0.399769 10.1388 
32 5 3 3.18995 1.57872 0.460916 
33 5 2 3.71127 2.98983 0.0269864 
34 5 2 3.96053 3.99326 1.1752 
35 5 1 4.86226 5.27096 0.905548 
36 5 1 2.08299 1.75022 1.55376 
37 6 1 2.54812 7.42095 3.96155 
38 6 3 2.87957 7.44141 2.52938 
39 6 2 3.38006 8.78946 2.33843 
40 6 2 4.89542 8.80775 2.3571 
41 6 1 5.2598 10.2443 1.97125 
42 6 1 1.70101 7.1542 1.62188 
43 7 1 7.37894 2.47624 6.93411 
44 7 3 6.80169 3.48653 7.95783 
45 7 2 7.20848 4.86893 7.55274 
46 7 2 6.98158 5.83967 8.66873 
47 7 1 6.97682 7.27209 8.11468 
48 7 1 6.64379 3.29315 9.52929 
49 8 1 6.01883 6.75027 5.07873 
50 8 3 5.60525 5.71446 4.10733 
51 8 2 6.81478 4.93693 3.90187 
52 8 2 6.39589 3.41971 3.72703 
53 8 1 6.98964 2.66357 2.59512 
54 8 1 4.62092 4.80586 4.70029 
55 9 1 0.152894 10.3406 3.94819 
56 9 3 9.9189 9.82231 2.91232 
57 9 2 8.64749 9.34149 3.59715 
58 9 2 8.18073 10.4273 4.47214 
59 9 1 7.15891 9.68626 5.39231 
60 9 1 9.59409 0.364314 2.05587 
ITEM: TIMESTEP
251000
ITEM: NUMBER OF ATOMS
60
ITEM: BOX BOUNDS pp pp pp
-1.0805939352682499e+00 1.1697393935268192e+01
-1.0805939352682499e+00 1.1697393935268192e+01
-1.0805939352682499e+00 1.1697393935268192e+01
ITEM: ATOMS id mol type x y z 
1 0 1 11.8506 4.08831 -0.690841 
2 0 3 10.4641 4.58945 -0.23277 
3 0 2 9.60808 5.45887 11.6064 
4 0 2 9.03875 6.70528 -0.468045 
5 0 1 10.0717 7.86615 -0.244208 
6 0 1 9.75029 3.82387 0.854384 
7 1 1 1.92077 9.45037 6.5513 
8 1 3 2.31373 8.29422 7.41299 
9 1 2 1.68182 6.92516 7.18151 
10 1 2 1.79987 5.82977 8.25053 
11 1 1 1.03947 5.82664 9.61441 
12 1 1 3.84304 8.31708 7.71884 
13 2 1 -0.202052 3.57825 3.44763 
14 2 3 11.5573 3.92651 4.57101 
15 2 2 10.4874 4.93008 4.13074 
16 2 2 11.0939 6.28802 3.67887 
17 2 1 10.0021 7.3247 3.44842 
18 2 1 -0.448523 4.48868 5.66872 
19 3 1 3.01905 -0.287256 5.52473 
20 3 3 3.31479 0.32125 6.85971 
21 3 2 2.27013 1.25656 7.39848 
22 3 2 0.922215 0.630334 7.81039 
23 3 1 0.198881 1.43821 8.83879 
24 3 1 4.28663 -0.393735 7.79346 
25 4 1 11.2628 9.52408 9.07388 
26 4 3 11.2394 10.4185 10.3876 
27 4 2 10.1815 11.4933 10.1389 
28 4 2 9.5332 -0.610486 11.3175 
29 4 1 8.34573 0.258953 10.9866 
30 4 1 -0.188765 11.1425 10.7784 
31 5 1 1.16554 1.76339 0.859097 
32 5 3 2.27937 1.74746 -0.205514 
33 5 2 3.14143 3.0055 -0.244551 
34 5 2 4.33767 3.08388 11.5215 
35 5 1 5.29958 4.26378 -1.0689 
36 5 1 3.05168 0.368369 -0.208727 
37 6 1 1.65667 7.5947 3.01463 
38 6 3 2.10393 7.61718 1.51973 
39 6 2 2.70607 9.00124 1.15385 
40 6 2 4.13688 9.3269 1.49285 
41 6 1 5.1531 9.14036 0.358518 
42 6 1 1.00897 7.11605 0.528483 
43 7 1 8.87538 2.34254 7.06291 
44 7 3 7.90571 3.50466 7.23214 
45 7 2 8.51967 4.86984 7.33366 
46 7 2 7.42554 5.93222 7.5637 
47 7 1 8.14686 7.24986 7.87595 
48 7 1 6.93853 3.24782 8.46444 
49 8 1 5.30749 6.3062 3.87975 
50 8 3 4.91511 4.84848 4.13467 
51 8 2 5.96296 3.86551 3.73895 
52 8 2 5.39931 2.44133 3.81073 
53 8 1 6.0993 1.42864 2.88179 
54 8 1 4.4585 4.57653 5.55906 
55 9 1 -0.0845747 10.9374 3.08067 
56 9 3 11.5289 -0.97182 3.47995 
57 9 2 10.7972 11.2686 4.72855 
58 9 2 9.31136 11.5809 4.9065 
59 9 1 8.67946 10.4367 5.64225 
60 9 1 10.5861 -0.913208 2.26542 
ITEM: TIMESTEP
252000
ITEM: NUMBER OF ATOMS
60
ITEM: BOX BOUNDS pp pp pp
-1.4495963079849155e+00 1.2066396307984849e+01
-1.4495963079849155e+00 1.2066396307984849e+01
-1.4495963079849155e+00 1.2066396307984849e+01
ITEM: ATOMS id mol type x y z 
1 0 1 -0.934355 5.02159 10.686 
2 0 3 -1.25678 5.17728 -1.3283 
3 0 2 10.7646 4.81075 -1.23031 
4 0 2 9.71765 5.84088 11.7947 
5 0 1 9.5657 7.08412 -0.862882 
6 0 1 -0.5313 4.03836 -0.58656 
7 1 1 4.04423 8.75356 4.72296 
8 1 3 3.22074 8.57112 5.95468 
9 1 2 1.92945 7.65337 5.92607 
10 1 2 0.823138 7.5765 7.07418 
11 1 1 -0.10887 8.75507 7.41842 
12 1 1 4.16154 8.09849 7.07831 
13 2 1 -0.91226 6.82702 3.49872 
14 2 3 11.4235 5.84537 3.77495 
15 2 2 10.0693 6.43447 3.36741 
16 2 2 9.45288 7.62034 4.17058 
17 2 1 8.33337 8.4045 3.50609 
18 2 1 11.4508 5.27177 5.17049 
19 3 1 2.4986 -0.28689 6.0636 
20 3 3 2.90657 0.847819 6.98393 
21 3 2 1.71337 1.34041 7.86555 
22 3 2 0.969413 0.184826 8.48177 
23 3 1 -0.154342 0.496399 9.46246 
24 3 1 4.03547 0.40533 7.97111 
25 4 1 11.2606 10.5995 10.7192 
26 4 3 10.7891 10.3805 -1.32572 
27 4 2 9.39027 10.9331 -1.09074 
28 4 2 9.08918 10.3252 0.290326 
29 4 1 7.76966 10.9839 0.70136 
30 4 1 11.7605 10.8164 -0.229555 
31 5 1 1.48889 0.444728 0.0961829 
32 5 3 2.54653 0.862486 -0.932974 
33 5 2 3.28845 2.22727 -0.742483 
34 5 2 4.1579 2.46622 11.5226 
35 5 1 4.65864 3.93538 11.3621 
36 5 1 3.59506 -0.308954 -1.08797 
37 6 1 3.17093 9.97816 0.732296 
38 6 3 3.76214 8.83936 -0.0440501 
39 6 2 3.43792 9.17981 11.9981 
40 6 2 3.756 8.1173 10.9282 
41 6 1 5.2766 7.74023 10.9362 
42 6 1 2.9334 7.67133 0.40657 
43 7 1 9.73104 1.39453 8.48553 
44 7 3 8.65025 2.45761 8.72927 
45 7 2 9.0491 3.89119 8.23675 
46 7 2 7.9771 5.01987 8.1276 
47 7 1 8.40415 6.51089 7.95835 
48 7 1 8.07699 2.47984 10.1592 
49 8 1 5.38814 5.1629 2.35143 
50 8 3 4.86887 4.06055 3.30515 
51 8 2 6.06514 3.57173 4.21142 
52 8 2 6.04822 2.03296 4.45168 
53 8 1 6.84394 1.22329 3.44202 
54 8 1 3.72768 4.471 4.28787 
55 9 1 -1.39136 12.0023 6.1075 
56 9 3 10.6801 -1.27894 5.54738 
57 9 2 9.54095 11.3724 6.04569 
58 9 2 8.4645 11.9388 6.90826 
59 9 1 7.3378 10.9158 7.15523 
60 9 1 10.5198 -0.820782 4.06437 
ITEM: TIMESTEP
253000
ITEM: NUMBER OF ATOMS
60
ITEM: BOX BOUNDS pp pp pp
-1.4600749219616054e+00 1.2076874921961604e+01
-1.4600749219616054e+00 1.2076874921961604e+01
-1.4600749219616054e+00 1.2076874921961604e+01
ITEM: ATOMS id mol type x y z 
1 0 1 11.2331 5.73505 -1.29929 
2 0 3 -1.54793 4.68595 -0.466214 
3 0 2 -1.44132 3.30954 -1.1824 
4 0 2 10.7836 2.59661 12.0334 
5 0 1 9.9537 1.99633 -0.320711 
6 0 1 -0.100412 5.14695 -0.143495 
7 1 1 2.80932 8.63048 5.60614 
8 1 3 2.01422 7.75462 6.5511 
9 1 2 1.08427 8.16182 7.66076 
10 1 2 1.82379 8.89245 8.77873 
11 1 1 1.81299 10.4448 8.57422 
12 1 1 1.89499 6.24257 6.25314 
13 2 1 -1.1466 7.08366 3.17621 
14 2 3 11.6666 6.74351 4.45543 
15 2 2 10.2765 6.19683 4.21938 
16 2 2 9.48289 7.29503 3.5128 
17 2 1 8.01452 6.89944 3.36069 
18 2 1 11.378 7.98282 5.36464 
19 3 1 1.07826 0.537349 3.83122 
20 3 3 2.2139 0.679732 4.78897 
21 3 2 1.81372 1.79888 5.81246 
22 3 2 0.749419 1.36173 6.81462 
23 3 1 -0.0539471 2.55662 7.41909 
24 3 1 2.56518 -0.648209 5.54176 
25 4 1 -1.14516 -0.28679 1.26491 
26 4 3 11.8288 11.9456 1.82792 
27 4 2 10.3241 12.0846 1.57026 
28 4 2 9.42391 10.9117 2.10353 
29 4 1 7.93228 11.1665 1.86873 
30 4 1 12.0297 11.8497 3.29877 
31 5 1 3.7433 -0.429275 11.5207 
32 5 3 4.27678 0.474844 10.4352 
33 5 2 3.85905 2.01268 10.6162 
34 5 2 3.7208 2.90406 9.36066 
35 5 1 3.69842 4.36856 9.63281 
36 5 1 5.80625 0.275874 10.3947 
37 6 1 3.05813 7.6642 1.1941 
38 6 3 3.6373 7.40842 -0.21449 
39 6 2 5.13084 7.71852 -0.207231 
40 6 2 5.78804 7.31656 -1.54618 
41 6 1 6.1704 5.83685 -1.76449 
42 6 1 2.82019 8.07273 -1.30987 
43 7 1 9.75273 2.82696 6.69413 
44 7 3 8.50444 3.46483 7.42907 
45 7 2 8.43134 5.02059 7.36542 
46 7 2 7.26782 5.58677 8.14062 
47 7 1 6.93594 7.03705 7.86404 
48 7 1 8.62565 2.82975 8.76859 
49 8 1 3.21752 3.22762 0.811322 
50 8 3 4.1438 3.58845 2.00351 
51 8 2 5.66077 3.61465 1.64362 
52 8 2 6.49438 2.5216 2.31812 
53 8 1 6.53265 2.52398 3.89286 
54 8 1 3.6784 4.84593 2.71681 
55 9 1 8.5839 -0.769331 5.94641 
56 9 3 9.17492 11.6235 6.73303 
57 9 2 9.59136 12.1337 8.10459 
58 9 2 10.371 11.0102 8.88228 
59 9 1 10.2257 11.0925 10.4143 
60 9 1 8.00806 10.7086 7.09201 
ITEM: TIMESTEP
254000
ITEM: NUMBER OF ATOMS
60
ITEM: BOX BOUNDS pp pp pp
-1.3415797536733471e+00 1.1958379753673320e+01
-1.3415797536733471e+00 1.1958379753673320e+01
-1.3415797536733471e+00 1.1958379753673320e+01
ITEM: ATOMS id mol type x y z 
1 0 1 10.3191 6.07681 0.389301 
2 0 3 11.1872 5.73822 -0.820389 
3 0 2 11.9665 4.42123 -0.677348 
4 0 2 -0.546441 4.40649 0.653866 
5 0 1 0.760991 5.13974 0.448494 
6 0 1 10.6101 6.05392 11.0978 
7 1 1 1.37536 4.46545 5.57008 
8 1 3 2.30008 5.61691 5.32901 
9 1 2 1.90594 6.77353 6.27389 
10 1 2 3.01197 7.6774 6.89004 
11 1 1 2.53878 8.64441 7.92816 
12 1 1 3.79059 5.19986 5.38986 
13 2 1 11.1749 6.38589 5.52821 
14 2 3 10.5317 7.11477 4.35839 
15 2 2 9.54416 8.32048 4.50236 
16 2 2 8.87998 8.71378 3.19553 
17 2 1 7.5011 9.33318 3.29717 
18 2 1 11.6888 7.54479 3.40007 
19 3 1 4.76867 11.6571 5.7068 
20 3 3 4.21029 -0.534803 4.8762 
21 3 2 2.65816 -0.579128 4.60818 
22 3 2 1.78684 -0.780066 5.82712 
23 3 1 0.260862 -0.548706 5.64599 
24 3 1 4.74767 0.812162 5.45943 
25 4 1 -0.440811 11.4334 1.38234 
26 4 3 11.5259 -1.12385 1.52006 
27 4 2 10.463 11.3705 0.795764 
28 4 2 9.08577 -1.34192 1.03677 
29 4 1 8.01634 11.4062 0.0906068 
30 4 1 11.5907 0.356553 1.30723 
31 5 1 0.83268 0.503053 11.7335 
32 5 3 2.09241 0.572297 10.8365 
33 5 2 2.27888 1.87977 10.1401 
34 5 2 3.50946 2.06478 9.27158 
35 5 1 3.40675 3.2357 8.32098 
36 5 1 3.32249 0.0915573 11.6628 
37 6 1 2.66234 8.63037 1.62455 
38 6 3 2.96706 8.46086 0.105128 
39 6 2 4.3047 7.72276 -0.117113 
40 6 2 4.50369 7.24536 11.7578 
41 6 1 4.20823 5.81375 11.5871 
42 6 1 2.9245 9.8176 -0.599491 
43 7 1 9.28749 2.79783 7.882 
44 7 3 8.04577 3.49247 8.60232 
45 7 2 8.07443 4.9823 8.36884 
46 7 2 6.74626 5.70346 8.76527 
47 7 1 6.48234 7.19733 8.518 
48 7 1 7.93969 3.15946 10.0522 
49 8 1 5.26827 1.96404 0.807973 
50 8 3 4.82454 2.87225 1.97338 
51 8 2 5.60148 4.17227 1.89481 
52 8 2 7.08486 4.11403 2.29958 
53 8 1 7.34149 4.42264 3.76783 
54 8 1 3.39686 3.32225 1.86099 
55 9 1 8.38764 10.3703 8.0235 
56 9 3 9.09773 11.6882 7.81467 
57 9 2 10.1362 11.9833 8.8977 
58 9 2 9.52137 -0.48579 9.96672 
59 9 1 10.3886 0.0290653 11.1012 
60 9 1 9.7993 11.8219 6.43375 
ITEM: TIMESTEP
255000
ITEM: NUMBER OF ATOMS
60
ITEM: BOX BOUNDS pp pp pp
-1.6018660943899183e+00 1.2218666094389949e+01
-1.6018660943899183e+00 1.2218666094389949e+01
-1.6018660943899183e+00 1.2218666094389949e+01
ITEM: ATOMS id mol type x y z 
1 0 1 9.88781 6.66172 -0.119432 
2 0 3 11.1834 7.00439 -0.8491 
3 0 2 11.9954 5.75375 -1.08167 
4 0 2 11.9896 4.8441 0.144987 
5 0 1 -0.571837 5.25881 0.923719 
6 0 1 11.0567 7.80733 11.6455 
7 1 1 0.345341 3.53836 5.88419 
8 1 3 1.36783 4.61278 6.21248 
9 1 2 0.797472 5.17656 7.50528 
10 1 2 -0.558278 5.79207 7.35013 
11 1 1 -0.85434 6.72253 8.53075 
12 1 1 2.84024 4.13361 6.33506 
13 2 1 9.46404 9.22577 6.91045 
14 2 3 9.61652 8.25926 5.73243 
15 2 2 9.12837 8.87548 4.39903 
16 2 2 7.63179 8.77663 4.27015 
17 2 1 7.35817 9.70899 3.09379 
18 2 1 11.1109 7.87222 5.47064 
19 3 1 5.99374 0.622875 7.40308 
20 3 3 6.33519 -0.450326 6.42329 
21 3 2 5.13775 12.3936 6.2897 
22 3 2 3.787 -1.15239 5.57757 
23 3 1 2.6424 11.7255 5.85906 
24 3 1 6.74774 -0.0101047 5.0237 
25 4 1 11.2766 -1.3621 0.332051 
26 4 3 9.87961 11.7944 0.161433 
27 4 2 9.56511 11.8736 -1.34872 
28 4 2 8.6543 10.7905 -1.88627 
29 4 1 8.127 10.9411 10.5286 
30 4 1 8.66975 -1.5524 0.949749 
31 5 1 2.32532 -1.09723 -0.684131 
32 5 3 2.72861 -0.575251 11.7504 
33 5 2 3.64449 0.665367 11.7362 
34 5 2 3.68591 1.35855 10.3389 
35 5 1 4.73985 2.51674 10.091 
36 5 1 3.54274 -1.59922 10.9119 
37 6 1 2.74597 8.65896 -0.398646 
38 6 3 2.4524 7.28966 -1.02376 
39 6 2 3.66341 6.55087 12.1733 
40 6 2 3.20516 5.2346 11.5391 
41 6 1 2.84291 4.24029 -1.13551 
42 6 1 1.31984 7.48576 11.8319 
43 7 1 8.13009 4.72618 8.93065 
44 7 3 7.64885 5.64382 7.74578 
45 7 2 6.52678 6.4853 8.46734 
46 7 2 5.78769 7.51119 7.6585 
47 7 1 5.05678 8.57675 8.48619 
48 7 1 7.19431 4.80004 6.63178 
49 8 1 6.6478 2.97489 -0.364027 
50 8 3 6.73469 2.10753 0.932989 
51 8 2 6.6987 2.95506 2.17993 
52 8 2 7.93558 3.83463 2.34471 
53 8 1 9.27203 3.19026 2.70247 
54 8 1 5.67322 1.02044 1.03461 
55 9 1 -1.62763 -1.60876 8.70348 
56 9 3 11.3401 -0.354814 8.75871 
57 9 2 11.9877 0.932359 9.34134 
58 9 2 -1.33714 0.904112 10.8035 
59 9 1 11.615 1.66803 11.7328 
60 9 1 10.7407 -0.248092 7.32279 
ITEM: TIMESTEP
256000
ITEM: NUMBER OF ATOMS
60
ITEM: BOX BOUNDS pp pp pp
-1.6345511654109455e+00 1.2251351165410998e+01
-1.6345511654109455e+00 1.2251351165410998e+01
-1.6345511654109455e+00 1.2251351165410998e+01
ITEM: ATOMS id mol type x y z 
1 0 1 11.1493 7.06556 0.565564 
2 0 3 12.0077 6.019 -0.106466 
3 0 2 10.9985 5.48903 -1.14364 
4 0 2 11.2632 4.05251 -1.58071 
5 0 1 12.1997 3.93343 11.1061 
6 0 1 -0.590016 6.61643 -0.690743 
7 1 1 0.260232 4.4038 7.58012 
8 1 3 1.80059 4.55839 7.4024 
9 1 2 2.0929 5.86022 8.1501 
10 1 2 1.37673 7.09827 7.60108 
11 1 1 1.94774 8.30313 8.37637 
12 1 1 2.50218 3.46697 8.21144 
13 2 1 9.73475 9.07215 4.68881 
14 2 3 9.32994 9.99105 3.53842 
15 2 2 7.8308 9.97987 3.34955 
16 2 2 7.30185 8.57001 3.72281 
17 2 1 5.80893 8.25285 3.61841 
18 2 1 9.73971 11.5285 3.66178 
19 3 1 4.50725 -0.758947 6.88413 
20 3 3 5.30098 -0.29637 5.70974 
21 3 2 4.45544 0.341058 4.64069 
22 3 2 3.82336 1.66722 4.96995 
23 3 1 2.86685 2.28922 3.91452 
24 3 1 6.64861 0.422171 6.16095 
25 4 1 7.50601 -1.08839 -1.21701 
26 4 3 7.66032 11.3781 12.056 
27 4 2 7.41112 11.5965 10.5779 
28 4 2 8.17457 10.6257 9.68649 
29 4 1 8.42544 11.0198 8.22719 
30 4 1 6.74235 10.3275 -1.06709 
31 5 1 2.9923 -1.46678 1.67252 
32 5 3 2.94717 -1.41414 0.181736 
33 5 2 3.69873 -0.199327 -0.447702 
34 5 2 3.53666 0.0693978 11.9031 
35 5 1 4.69909 0.853127 11.2926 
36 5 1 3.48825 11.1161 -0.254869 
37 6 1 3.71983 5.64075 1.6782 
38 6 3 3.4854 5.90428 0.189453 
39 6 2 4.22082 4.8326 -0.605212 
40 6 2 3.77518 4.8093 11.7825 
41 6 1 2.41885 4.0928 11.6159 
42 6 1 3.73566 7.33082 -0.240258 
43 7 1 7.7071 4.13947 10.0655 
44 7 3 7.54579 5.25744 8.93754 
45 7 2 6.61229 6.24852 9.63106 
46 7 2 6.25676 7.53528 8.81761 
47 7 1 5.30099 8.50927 9.50252 
48 7 1 7.05133 4.68188 7.60527 
49 8 1 7.51136 3.43358 0.491189 
50 8 3 7.34807 2.79721 1.89865 
51 8 2 7.1584 3.98466 2.86045 
52 8 2 8.06414 5.2203 2.62589 
53 8 1 9.35071 5.25697 3.45633 
54 8 1 6.25853 1.69162 2.01026 
55 9 1 -1.26855 -1.57638 6.84344 
56 9 3 -1.4858 -0.177513 7.39351 
57 9 2 -1.44871 -0.18051 8.9515 
58 9 2 11.0472 -0.274921 9.66654 
59 9 1 10.0154 0.861354 9.21412 
60 9 1 -0.146644 0.488359 7.04709 
ITEM: TIMESTEP
257000
ITEM: NUMBER OF ATOMS
60
ITEM: BOX BOUNDS pp pp pp
-1.4631497106919165e+00 1.2079949710691974e+01
-1.4631497106919165e+00 1.2079949710691974e+01
-1.4631497106919165e+00 1.2079949710691974e+01
ITEM: ATOMS id mol type x y z 
1 0 1 11.4865 5.51075 3.07726 
2 0 3 -0.958504 5.22212 2.07527 
3 0 2 -0.148503 6.41805 1.58862 
4 0 2 0.417877 6.00044 0.217185 
5 0 1 -0.777217 5.5259 -0.691359 
6 0 1 -0.109739 3.97339 2.31839 
7 1 1 1.2735 5.91319 5.48935 
8 1 3 0.891579 6.24197 6.97047 
9 1 2 -0.565767 6.03717 7.18811 
10 1 2 -1.33192 7.31418 6.65942 
11 1 1 -0.552153 8.58828 7.08985 
12 1 1 1.52545 5.28704 7.98816 
13 2 1 10.6089 10.4639 2.68686 
14 2 3 9.31491 10.9858 3.2134 
15 2 2 7.9547 10.3539 2.88883 
16 2 2 6.82096 11.3262 3.17596 
17 2 1 5.47728 11.1405 2.48361 
18 2 1 9.42258 11.5348 4.64923 
19 3 1 6.27395 -0.443407 7.43082 
20 3 3 6.51191 0.916323 8.03728 
21 3 2 5.80776 1.97387 7.2166 
22 3 2 4.32895 1.7468 7.0682 
23 3 1 3.87446 2.63001 5.86268 
24 3 1 6.18473 1.0437 9.5779 
25 4 1 8.58452 7.86775 -1.63066 
26 4 3 8.28614 9.23153 11.3218 
27 4 2 9.07164 9.29707 10.0059 
28 4 2 9.12105 10.6498 9.33819 
29 4 1 9.89871 10.6317 7.97853 
30 4 1 8.71885 10.3152 -1.19186 
31 5 1 -0.521796 9.45284 -2.11701 
32 5 3 0.886511 10.1242 11.4203 
33 5 2 1.0075 11.4419 -1.35378 
34 5 2 2.16431 -1.20732 -1.62949 
35 5 1 2.63786 -0.215918 -0.553699 
36 5 1 2.03781 9.09998 11.6379 
37 6 1 4.14687 7.55549 1.2213 
38 6 3 4.05946 5.99066 0.923659 
39 6 2 4.75366 5.10173 2.00965 
40 6 2 4.74615 3.60538 1.76738 
41 6 1 3.35411 3.01094 2.04985 
42 6 1 4.67019 5.71728 -0.480124 
43 7 1 6.33768 6.29789 8.78718 
44 7 3 5.60672 7.15742 7.75614 
45 7 2 4.5537 8.08609 8.46128 
46 7 2 4.11764 9.10527 7.43769 
47 7 1 2.8611 9.99825 7.81396 
48 7 1 5.21557 6.38597 6.49801 
49 8 1 8.27845 3.79736 0.00366591 
50 8 3 8.703 2.34036 0.139716 
51 8 2 8.16811 1.7729 1.44153 
52 8 2 8.75466 2.48744 2.67435 
53 8 1 10.0345 1.72329 3.16108 
54 8 1 8.10794 1.65038 -1.00832 
55 9 1 0.453663 0.585113 7.99473 
56 9 3 -0.63536 -0.348855 7.50536 
57 9 2 11.7279 0.518151 7.04482 
58 9 2 11.3905 1.54425 8.07964 
59 9 1 10.1315 1.18538 8.88498 
60 9 1 -0.366684 -1.14233 6.22342 
ITEM: TIMESTEP
258000
ITEM: NUMBER OF ATOMS
60
ITEM: BOX BOUNDS pp pp pp
-1.5185874648265685e+00 1.2135387464826596e+01
-1.5185874648265685e+00 1.2135387464826596e+01
-1.5185874648265685e+00 1.2135387464826596e+01
ITEM: ATOMS id mol type x y z 
1 0 1 9.24218 4.03861 0.837321 
2 0 3 10.7497 3.91502 0.8675 
3 0 2 11.4931 5.2048 0.536197 
4 0 2 -0.834988 5.01066 -0.205221 
5 0 1 -1.08405 4.60321 12.0007 
6 0 1 11.1466 3.48342 2.29648 
7 1 1 3.23429 5.37415 5.56946 
8 1 3 1.96543 5.46221 6.38996 
9 1 2 0.654877 5.2661 5.57567 
10 1 2 -0.0101926 6.49061 4.90565 
11 1 1 -0.438016 7.56494 5.91043 
12 1 1 2.0884 4.52461 7.60411 
13 2 1 11.3101 10.1304 4.01204 
14 2 3 9.83232 10.1127 4.14165 
15 2 2 9.11908 9.78052 2.83613 
16 2 2 7.60603 10.1255 2.6457 
17 2 1 7.20758 9.90615 1.1931 
18 2 1 9.52517 9.07519 5.23048 
19 3 1 6.22579 2.38889 10.6385 
20 3 3 5.08147 3.10898 9.94085 
21 3 2 5.6298 3.98315 8.78061 
22 3 2 6.24711 3.06305 7.70941 
23 3 1 6.68987 3.8248 6.44782 
24 3 1 4.04318 2.14356 9.35671 
25 4 1 7.27211 7.81954 11.9331 
26 4 3 8.59289 8.41266 11.4699 
27 4 2 8.6068 8.78163 9.99202 
28 4 2 9.7764 9.69326 9.63265 
29 4 1 9.71612 10.5699 8.40887 
30 4 1 9.92817 7.68619 11.9255 
31 5 1 0.637354 11.7781 11.0915 
32 5 3 1.24598 11.4298 12.4845 
33 5 2 0.311897 11.8632 -0.031533 
34 5 2 0.841114 11.8492 1.38577 
35 5 1 -0.216657 -1.2869 2.37777 
36 5 1 1.57151 9.90034 -1.07544 
37 6 1 4.46654 7.06574 1.85524 
38 6 3 3.63538 5.91413 1.42869 
39 6 2 4.3319 4.62149 1.84678 
40 6 2 3.60689 3.27739 1.55186 
41 6 1 2.37249 2.98069 2.45109 
42 6 1 3.23653 5.94295 -0.0125967 
43 7 1 3.66716 9.12772 8.77393 
44 7 3 5.02402 9.45058 8.08709 
45 7 2 5.11073 10.9616 7.7482 
46 7 2 6.40498 11.5047 7.20529 
47 7 1 6.53758 -0.610508 7.08675 
48 7 1 5.16169 8.55452 6.85886 
49 8 1 9.70139 1.33909 -1.86461 
50 8 3 9.96459 0.0197211 -0.991548 
51 8 2 8.77258 -0.600912 -0.212136 
52 8 2 8.23644 0.132228 1.03724 
53 8 1 9.23929 0.445829 2.19634 
54 8 1 10.4253 -1.06218 11.7156 
55 9 1 -0.4575 1.49486 9.09733 
56 9 3 -1.20221 1.01809 7.79755 
57 9 2 11.9915 2.18727 6.89188 
58 9 2 10.5495 2.7916 7.10043 
59 9 1 10.4516 3.42088 8.46732 
60 9 1 -0.721878 -0.349644 7.20924 
ITEM: TIMESTEP
259000
ITEM: NUMBER OF ATOMS
60
ITEM: BOX BOUNDS pp pp pp
-1.3750448052028510e+00 1.1991844805202899e+01
-1.3750448052028510e+00 1.1991844805202899e+01
-1.3750448052028510e+00 1.1991844805202899e+01
ITEM: ATOMS id mol type x y z 
1 0 1 10.0754 4.30981 2.24044 
2 0 3 11.4507 4.04497 1.60306 
3 0 2 -0.929365 5.26088 1.60933 
4 0 2 0.388208 4.96154 0.841766 
5 0 1 0.274898 4.88342 -0.70903 
6 0 1 12.0705 2.8178 2.37113 
7 1 1 1.9638 5.2215 7.49171 
8 1 3 1.23919 5.07727 6.13186 
9 1 2 1.20537 6.43506 5.29683 
10 1 2 0.393331 7.45066 6.04181 
11 1 1 -1.1025 7.17764 5.91287 
12 1 1 1.63696 3.85687 5.24917 
13 2 1 7.21809 10.835 3.96368 
14 2 3 6.59444 9.5852 3.30377 
15 2 2 6.57709 9.4802 1.77194 
16 2 2 5.70189 8.34278 1.15291 
17 2 1 5.92016 8.04161 -0.346928 
18 2 1 7.13284 8.22261 3.80752 
19 3 1 5.52176 2.41466 10.8081 
20 3 3 4.52058 3.51209 10.261 
21 3 2 5.30868 4.72702 9.72166 
22 3 2 6.1271 4.50869 8.42567 
23 3 1 6.8257 5.6608 7.81846 
24 3 1 3.77051 2.83363 9.15223 
25 4 1 11.0351 10.4052 8.39761 
26 4 3 11.5936 10.0471 9.72729 
27 4 2 -0.507165 9.12342 9.5784 
28 4 2 0.72523 9.59502 10.4003 
29 4 1 0.651476 9.25846 11.9214 
30 4 1 10.4924 9.36315 10.594 
31 5 1 2.06803 10.9972 1.7313 
32 5 3 0.933936 10.1262 2.31669 
33 5 2 -0.436755 10.3117 1.55499 
34 5 2 11.6951 9.48549 2.09356 
35 5 1 10.4399 9.80177 1.27394 
36 5 1 1.41009 8.64289 2.27899 
37 6 1 5.95432 3.81599 3.83099 
38 6 3 5.65906 3.48891 2.3106 
39 6 2 5.84659 1.93507 2.117 
40 6 2 4.84137 1.42917 1.01468 
41 6 1 3.32437 1.35277 1.42339 
42 6 1 6.488 4.39713 1.32215 
43 7 1 3.34404 0.47063 5.53859 
44 7 3 4.49253 -0.462948 6.06071 
45 7 2 4.02501 -1.21445 7.38206 
46 7 2 5.23121 11.3457 8.03954 
47 7 1 4.96077 10.6798 9.35849 
48 7 1 5.84258 0.300006 6.25215 
49 8 1 9.57372 0.347338 10.3017 
50 8 3 9.26168 0.663968 11.8175 
51 8 2 9.15439 -0.528126 -0.622199 
52 8 2 8.01039 11.8385 -0.944719 
53 8 1 6.59996 -1.00935 -1.1274 
54 8 1 10.1693 1.7821 -1.14533 
55 9 1 -1.18265 1.1509 5.89688 
56 9 3 11.0678 1.7681 6.80382 
57 9 2 11.0584 3.29581 6.59208 
58 9 2 10.4583 4.07728 7.74197 
59 9 1 11.3324 4.1296 9.02988 
60 9 1 9.6983 1.16913 6.43946 
ITEM: TIMESTEP
260000
ITEM: NUMBER OF ATOMS
60
ITEM: BOX BOUNDS pp pp pp
-1.5639951449485459e+00 1.2180795144948570e+01
-1.5639951449485459e+00 1.2180795144948570e+01
-1.5639951449485459e+00 1.2180795144948570e+01
ITEM: ATOMS id mol type x y z 
1 0 1 -1.08464 4.39113 2.57372 
2 0 3 -0.234253 3.42842 1.80334 
3 0 2 0.828303 4.31857 1.12613 
4 0 2 2.0339 3.5446 0.541071 
5 0 1 1.67718 2.86279 -0.830926 
6 0 1 0.439693 2.35463 2.70541 
7 1 1 -0.181716 4.34469 7.5498 
8 1 3 0.0886046 4.78615 6.12296 
9 1 2 0.123888 6.2978 5.94867 
10 1 2 -1.09093 6.95867 6.67533 
11 1 1 -1.05661 8.47431 6.39638 
12 1 1 1.37621 4.09553 5.5494 
13 2 1 4.4288 7.38984 3.33104 
14 2 3 5.1666 7.35181 1.95402 
15 2 2 6.35856 8.34359 1.69597 
16 2 2 6.93152 8.28256 0.263552 
17 2 1 8.33881 8.80033 0.206024 
18 2 1 5.40611 5.90557 1.49761 
19 3 1 6.28417 6.11143 11.2841 
20 3 3 6.21324 5.27359 10.0148 
21 3 2 5.29747 5.81681 8.98516 
22 3 2 5.80055 7.23975 8.51923 
23 3 1 4.7751 7.73338 7.47609 
24 3 1 7.58235 5.17509 9.45553 
25 4 1 -0.264814 10.0981 -0.908493 
26 4 3 -0.37657 8.73132 -1.55523 
27 4 2 0.868994 8.39377 11.3138 
28 4 2 2.20364 8.63795 12.0195 
29 4 1 2.32789 7.53535 -0.658233 
30 4 1 11.9765 8.53972 11.5331 
31 5 1 11.7543 -0.962544 2.95634 
32 5 3 -1.3441 11.3629 2.97987 
33 5 2 11.623 10.2193 2.22373 
34 5 2 -1.44398 8.82398 2.36037 
35 5 1 11.6187 7.65322 1.66705 
36 5 1 0.0884785 11.3862 2.30054 
37 6 1 6.94345 2.66253 1.14823 
38 6 3 6.62019 1.18122 1.01195 
39 6 2 5.4555 0.919377 0.0717194 
40 6 2 4.76092 -0.469971 0.128838 
41 6 1 5.39129 12.1306 -0.640932 
42 6 1 6.3184 0.748554 2.44476 
43 7 1 1.64703 0.78376 7.40358 
44 7 3 3.09977 0.184745 7.54634 
45 7 2 3.27188 -1.20152 8.28104 
46 7 2 4.81004 12.1152 8.34096 
47 7 1 5.07702 10.8574 9.16316 
48 7 1 3.84877 1.20394 8.36978 
49 8 1 9.97665 2.83594 -1.10819 
50 8 3 9.95662 1.18281 -1.2084 
51 8 2 10.2352 0.617105 11.077 
52 8 2 9.13128 0.753796 10.0422 
53 8 1 7.92442 0.15295 10.8341 
54 8 1 10.78 0.423308 -0.10797 
55 9 1 10.4998 1.95599 5.96296 
56 9 3 9.17779 2.78698 5.93785 
57 9 2 9.31716 3.9597 4.87747 
58 9 2 8.41339 5.25222 5.00942 
59 9 1 9.21629 6.55538 5.3623 
60 9 1 7.87281 1.95901 5.93722 
ITEM: TIMESTEP
261000
ITEM: NUMBER OF ATOMS
60
ITEM: BOX BOUNDS pp pp pp
-1.3542752845299892e+00 1.1971075284530013e+01
-1.3542752845299892e+00 1.1971075284530013e+01
-1.3542752845299892e+00 1.1971075284530013e+01
ITEM: ATOMS id mol type x y z 
1 0 1 0.549797 5.2996 1.31525 
2 0 3 1.19847 4.37442 0.24994 
3 0 2 2.25497 5.19623 -0.525574 
4 0 2 2.94164 4.34916 11.7399 
5 0 1 1.96564 3.62105 10.8262 
6 0 1 1.77974 3.02422 0.901418 
7 1 1 1.27535 4.16671 7.31273 
8 1 3 0.961598 5.5885 6.94629 
9 1 2 2.1772 6.45689 7.21475 
10 1 2 1.89572 7.99198 7.07502 
11 1 1 2.92969 8.83937 7.84766 
12 1 1 0.449375 5.79232 5.50606 
13 2 1 4.50483 9.85481 4.54399 
14 2 3 4.742 8.73375 3.52522 
15 2 2 6.13025 8.05133 3.5532 
16 2 2 6.36128 6.86385 2.60279 
17 2 1 6.43594 7.15369 1.05945 
18 2 1 3.61132 7.73936 3.4474 
19 3 1 6.65368 5.01236 10.2511 
20 3 3 6.16259 6.12928 9.23469 
21 3 2 6.01181 5.43398 7.90984 
22 3 2 5.20605 4.11334 7.7518 
23 3 1 5.06104 3.51958 6.31034 
24 3 1 4.75649 6.61211 9.66957 
25 4 1 10.9962 8.46302 9.94982 
26 4 3 11.2716 7.95763 11.353 
27 4 2 -0.641477 7.85343 11.8623 
28 4 2 0.0672849 9.20917 11.8348 
29 4 1 -0.520502 10.2309 -0.548566 
30 4 1 10.5549 6.59419 11.5475 
31 5 1 11.7401 -0.795614 6.25993 
32 5 3 -0.934277 11.469 5.36053 
33 5 2 11.3409 10.819 4.41882 
34 5 2 -1.37833 9.83706 3.4295 
35 5 1 10.8606 9.05043 2.66214 
36 5 1 0.00919975 -0.955634 4.50321 
37 6 1 5.52091 1.49617 0.580306 
38 6 3 5.57859 -0.0093083 0.916504 
39 6 2 6.72927 -0.750942 0.128106 
40 6 2 7.39991 11.4404 0.951595 
41 6 1 7.91083 11.8299 2.38269 
42 6 1 4.19524 -0.641056 0.642537 
43 7 1 0.493832 -1.47134 9.47419 
44 7 3 1.62717 -0.411779 9.26678 
45 7 2 2.55239 -0.703297 8.05325 
46 7 2 3.95417 -0.132007 8.04647 
47 7 1 4.57872 -0.673051 6.68395 
48 7 1 2.5054 -0.152099 10.4968 
49 8 1 -1.08992 1.81284 10.0965 
50 8 3 11.0541 1.4546 10.9662 
51 8 2 10.7925 -0.0528288 10.8059 
52 8 2 10.2446 -0.665863 9.4708 
53 8 1 8.83199 -0.0785823 9.23626 
54 8 1 11.0538 1.88217 -0.934952 
55 9 1 9.99565 2.23299 3.55427 
56 9 3 9.1179 3.20782 4.35706 
57 9 2 9.75094 4.56737 4.55363 
58 9 2 9.08242 5.32913 5.72491 
59 9 1 9.73561 6.53669 6.43152 
60 9 1 7.67349 3.21806 3.82405 
ITEM: TIMESTEP
262000
ITEM: NUMBER OF ATOMS
60
ITEM: BOX BOUNDS pp pp pp
-1.4042001743172001e+00 1.2021000174317251e+01
-1.4042001743172001e+00 1.2021000174317251e+01
-1.4042001743172001e+00 1.2021000174317251e+01
ITEM: ATOMS id mol type x y z 
1 0 1 3.26732 5.7596 -0.386839 
2 0 3 2.59457 4.74996 0.551279 
3 0 2 2.26191 3.50164 -0.253616 
4 0 2 1.85356 2.30293 0.58271 
5 0 1 0.38248 2.46991 1.0738 
6 0 1 3.5488 4.37901 1.69952 
7 1 1 -1.32443 5.44451 2.87675 
8 1 3 -0.7874 6.62648 3.639 
9 1 2 -1.27435 6.52708 5.16226 
10 1 2 -1.07705 7.79679 5.97935 
11 1 1 11.9457 7.37847 7.4477 
12 1 1 0.698085 6.86162 3.45046 
13 2 1 7.13066 9.05321 6.1694 
14 2 3 5.63847 9.29931 5.71605 
15 2 2 5.11912 7.87352 5.2654 
16 2 2 5.06524 7.67114 3.71582 
17 2 1 6.38463 7.50787 2.96373 
18 2 1 4.79746 9.74713 6.9525 
19 3 1 5.51407 3.70618 10.628 
20 3 3 6.03707 4.96135 9.80866 
21 3 2 5.20154 5.11438 8.50395 
22 3 2 3.72992 5.55465 8.71882 
23 3 1 2.75925 4.95665 7.73119 
24 3 1 6.04659 6.24339 10.6867 
25 4 1 9.95869 6.5356 -0.319077 
26 4 3 10.947 7.25562 -1.25975 
27 4 2 11.615 8.66508 -0.969121 
28 4 2 -0.585701 8.65675 -0.0335142 
29 4 1 0.74555 8.21106 -0.73011 
30 4 1 10.3664 7.29905 10.7016 
31 5 1 0.57521 -0.563514 3.04031 
32 5 3 -0.642002 11.9884 2.71245 
33 5 2 11.7843 11.9608 3.8603 
34 5 2 10.958 10.6324 3.81281 
35 5 1 10.1866 10.4214 5.16757 
36 5 1 12.0166 -0.942873 1.44151 
37 6 1 4.66638 0.23778 3.74746 
38 6 3 5.29207 -0.897015 2.92888 
39 6 2 6.7592 -0.570627 2.62536 
40 6 2 7.69409 11.6433 2.41784 
41 6 1 7.81228 11.178 0.947275 
42 6 1 4.49693 -1.12696 1.65875 
43 7 1 6.95801 11.2501 10.0743 
44 7 3 5.97149 -1.02556 9.94051 
45 7 2 5.69715 -0.50565 8.58501 
46 7 2 4.48977 0.377013 8.64881 
47 7 1 3.95097 0.635623 7.23079 
48 7 1 4.83022 -1.17512 10.9016 
49 8 1 -0.698333 0.0551779 7.38622 
50 8 3 11.6205 0.404095 8.53192 
51 8 2 11.955 1.69652 9.30261 
52 8 2 10.8431 2.26264 10.1536 
53 8 1 11.1594 3.59523 10.9088 
54 8 1 10.2527 0.282894 7.83111 
55 9 1 9.78656 2.15868 1.58865 
56 9 3 8.57945 2.99915 2.10575 
57 9 2 8.98338 3.78654 3.40344 
58 9 2 7.89475 4.50165 4.15908 
59 9 1 8.31463 4.95142 5.6073 
60 9 1 8.00796 3.75698 0.887816 
ITEM: TIMESTEP
263000
ITEM: NUMBER OF ATOMS
60
ITEM: BOX BOUNDS pp pp pp
-1.3193466134407794e+00 1.1936146613440854e+01
-1.3193466134407794e+00 1.1936146613440854e+01
-1.3193466134407794e+00 1.1936146613440854e+01
ITEM: ATOMS id mol type x y z 
1 0 1 3.70285 4.90902 0.673818 
2 0 3 3.27091 4.49042 2.05067 
3 0 2 1.96621 3.71806 1.92055 
4 0 2 1.64342 3.03294 3.27686 
5 0 1 0.296981 2.34184 3.50984 
6 0 1 4.26622 3.70218 2.94527 
7 1 1 9.63593 5.8555 7.07057 
8 1 3 10.8663 6.68876 6.55558 
9 1 2 11.5876 7.49586 7.65692 
10 1 2 -0.396543 8.37652 7.35391 
11 1 1 -0.0234306 9.05402 8.63507 
12 1 1 11.9891 6.07298 5.60525 
13 2 1 6.71213 7.81911 5.33011 
14 2 3 5.53492 8.47658 4.57167 
15 2 2 5.13586 7.7575 3.30382 
16 2 2 5.12125 8.61924 2.05485 
17 2 1 6.50689 9.00397 1.55442 
18 2 1 4.41058 8.65661 5.5234 
19 3 1 4.42162 4.7849 10.3876 
20 3 3 4.59421 5.87043 9.23507 
21 3 2 5.12515 5.46804 7.87849 
22 3 2 4.32763 4.50261 7.0028 
23 3 1 2.92765 4.95276 6.62181 
24 3 1 3.66118 7.16342 9.24491 
25 4 1 10.0488 9.46843 -0.303913 
26 4 3 10.5257 8.17074 -0.899105 
27 4 2 12.0475 8.04433 -0.810441 
28 4 2 -0.644451 7.54248 0.471543 
29 4 1 -0.649126 6.03895 0.456564 
30 4 1 9.99605 8.23705 10.9061 
31 5 1 1.01824 11.0553 4.82175 
32 5 3 -0.376981 10.6685 4.406 
33 5 2 -1.3355 -1.3568 4.21692 
34 5 2 10.4573 11.4761 4.43188 
35 5 1 9.50472 -0.571498 4.17432 
36 5 1 -0.323423 9.82876 3.11141 
37 6 1 4.89476 0.105379 3.4703 
38 6 3 5.12584 -0.472837 2.03406 
39 6 2 6.45156 -0.0157335 1.38784 
40 6 2 6.84363 -0.432394 -0.0336744 
41 6 1 8.25095 0.0449868 -0.55629 
42 6 1 3.87018 -0.197904 1.18985 
43 7 1 7.73531 11.9908 9.09684 