ITEM: TIMESTEP
0
ITEM: NUMBER OF ATOMS
60
ITEM: BOX BOUNDS pp pp pp
0.0000000000000000e+00 1.0616800000000000e+01
0.0000000000000000e+00 1.0616800000000000e+01
0.0000000000000000e+00 1.0616800000000000e+01
ITEM: ATOMS id mol type xu yu zu 
1 0 1 1.28705 9.02726 -2.34335 
2 0 3 1.86765 9.40099 -0.974957 
3 0 2 0.789669 9.76431 0.0369398 
4 0 2 1.16841 11.0602 0.748089 
5 0 1 -0.0211673 11.6719 1.47968 
6 0 1 2.92432 10.5061 -1.04898 
7 1 1 5.22366 7.50811 9.67575 
8 1 3 3.96803 6.65343 9.81862 
9 1 2 4.14341 5.49236 10.7931 
10 1 2 2.9509 4.54613 10.7224 
11 1 1 3.03215 3.34672 11.658 
12 1 1 3.47128 6.19869 8.45328 
13 2 1 12.4006 1.01267 5.99539 
14 2 3 11.5798 2.09469 5.31169 
15 2 2 10.2018 1.47827 5.17001 
16 2 2 9.07732 2.35777 4.66077 
17 2 1 7.80601 1.52216 4.75376 
18 2 1 12.2052 2.40969 3.96043 
19 3 1 6.80035 6.87605 6.3945 
20 3 3 8.25717 7.05108 5.98214 
21 3 2 8.49397 8.42344 5.36538 
22 3 2 9.97995 8.62564 5.09455 
23 3 1 10.2024 9.07799 3.65338 
24 3 1 8.71 5.94002 5.03469 
25 4 1 6.81592 -0.452319 7.88577 
26 4 3 8.01393 -0.486152 8.8183 
27 4 2 9.16416 0.317932 8.23151 
28 4 2 9.36024 1.65041 8.94891 
29 4 1 10.7392 2.25429 8.6912 
30 4 1 8.41347 -1.91533 9.18487 
31 5 1 6.13003 4.80082 2.93865 
32 5 3 5.19156 4.63574 4.13211 
33 5 2 3.88423 5.38787 3.90946 
34 5 2 2.99139 5.36686 5.14874 
35 5 1 1.58292 5.89567 4.87559 
36 5 1 4.88951 3.15919 4.37187 
37 6 1 7.40477 2.17406 1.35043 
38 6 3 6.69556 0.834419 1.17157 
39 6 2 7.41171 -0.302523 1.89452 
40 6 2 6.66744 -1.61051 1.66654 
41 6 1 7.42393 -2.869 2.07572 
42 6 1 5.21761 0.90534 1.54094 
43 7 1 7.1742 4.61908 9.56421 
44 7 3 6.37826 3.95562 8.44264 
45 7 2 5.6988 2.67319 8.90338 
46 7 2 4.74926 2.15234 7.83115 
47 7 1 3.52647 3.05306 7.72373 
48 7 1 7.27934 3.6594 7.25359 
49 8 1 -0.675467 4.50254 12.8135 
50 8 3 -0.575426 5.63514 11.7983 
51 8 2 -0.298097 5.04251 10.4254 
52 8 2 -0.138673 6.09093 9.32815 
53 8 1 0.121103 5.49595 7.94261 
54 8 1 0.541297 6.60171 12.182 
55 9 1 4.12071 8.84216 6.54901 
56 9 3 4.3177 9.01442 5.0539 
57 9 2 2.92247 9.03139 4.46082 
58 9 2 2.93934 9.41929 2.99698 
59 9 1 3.48058 8.27394 2.15864 
60 9 1 4.99944 10.3557 4.81037 
ITEM: TIMESTEP
1000
ITEM: NUMBER OF ATOMS
60
ITEM: BOX BOUNDS pp pp pp
0.0000000000000000e+00 1.0616800000000000e+01
0.0000000000000000e+00 1.0616800000000000e+01
0.0000000000000000e+00 1.0616800000000000e+01
ITEM: ATOMS id mol type xu yu zu 
1 0 1 1.55225 9.17462 -2.22344 
2 0 3 2.08485 9.52491 -0.836702 
3 0 2 0.95076 10.0327 -0.0595492 
4 0 2 1.28495 11.2128 0.792027 
5 0 1 0.054634 12.2137 0.737818 
6 0 1 3.23428 10.609 -0.917391 
7 1 1 5.18804 6.66442 9.82353 
8 1 3 3.72108 6.51219 9.85767 
9 1 2 3.43621 5.53662 10.9941 
10 1 2 3.22611 4.25323 10.2367 
11 1 1 2.92998 3.25518 11.2883 
12 1 1 3.10445 6.06302 8.5553 
13 2 1 11.408 1.74706 4.57292 
14 2 3 11.1304 3.22323 4.75702 
15 2 2 9.74027 3.45291 5.1775 
16 2 2 9.03685 2.52011 4.35778 
17 2 1 7.96121 1.78026 5.02968 
18 2 1 11.4298 3.73717 3.40264 
19 3 1 7.37064 6.73141 5.97919 
20 3 3 8.57308 7.59996 5.75023 
21 3 2 8.8221 8.16264 4.39577 
22 3 2 10.3352 8.45554 4.12857 
23 3 1 10.2175 9.54138 3.11451 
24 3 1 9.88091 7.00685 6.31238 
25 4 1 6.75869 -0.96965 9.22328 
26 4 3 8.3264 -1.23743 9.29638 
27 4 2 8.86222 -0.673334 8.0017 
28 4 2 8.76591 0.775975 8.10456 
29 4 1 10.1031 1.34861 7.5992 
30 4 1 8.47051 -2.78412 9.4393 
31 5 1 6.27589 4.23253 2.69763 
32 5 3 5.32442 4.06344 3.8997 
33 5 2 4.618 5.43853 4.17661 
34 5 2 3.54265 5.4508 5.29748 
35 5 1 2.41654 6.48301 5.1104 
36 5 1 4.43889 2.94495 4.03587 
37 6 1 7.71226 1.40592 1.13073 
38 6 3 6.77218 0.61112 2.09115 
39 6 2 6.89307 -0.881238 1.91804 
40 6 2 5.67977 -1.73897 1.62205 
41 6 1 5.83564 -3.21411 2.04557 
42 6 1 5.3975 0.977264 1.42034 
43 7 1 7.19052 4.2245 10.0575 
44 7 3 6.24904 3.87785 8.81477 
45 7 2 5.63518 2.51399 8.77109 
46 7 2 5.01446 2.1664 7.45978 
47 7 1 3.43615 2.33144 7.13507 
48 7 1 7.22593 4.19786 7.70238 
49 8 1 -1.58158 5.56006 12.6368 
50 8 3 -0.570898 6.10174 11.6152 
51 8 2 -0.200741 4.93514 10.7921 
52 8 2 -0.397801 5.28177 9.30173 
53 8 1 0.356566 4.1678 8.52283 
54 8 1 0.63488 6.783 12.0359 
55 9 1 4.6199 8.67709 6.91298 
56 9 3 4.84797 8.96997 5.44973 
57 9 2 3.55595 9.68173 5.41961 
58 9 2 3.38064 10.357 4.12403 
59 9 1 2.87308 9.27798 3.0895 
60 9 1 6.04663 9.92031 5.35705 
ITEM: TIMESTEP
2000
ITEM: NUMBER OF ATOMS
60
ITEM: BOX BOUNDS pp pp pp
0.0000000000000000e+00 1.0616800000000000e+01
0.0000000000000000e+00 1.0616800000000000e+01
0.0000000000000000e+00 1.0616800000000000e+01
ITEM: ATOMS id mol type xu yu zu 
1 0 1 1.11545 8.44241 -2.29348 
2 0 3 1.9005 8.71953 -1.02533 
3 0 2 1.03196 8.93873 0.335808 
4 0 2 1.64526 10.3546 0.760222 
5 0 1 0.663821 11.449 1.32586 
6 0 1 2.72974 9.94755 -1.20677 
7 1 1 5.90285 5.97881 10.4853 
8 1 3 4.76822 6.81881 9.88259 
9 1 2 3.78696 5.75409 10.0724 
10 1 2 3.6209 5.10129 11.4249 
11 1 1 3.16825 3.63738 11.598 
12 1 1 4.89485 7.14949 8.38043 
13 2 1 11.4943 1.00629 6.11219 
14 2 3 11.4614 2.45414 5.5816 
15 2 2 10.0117 2.96064 5.99343 
16 2 2 9.11768 2.59053 4.76187 
17 2 1 8.63927 1.15601 4.38952 
18 2 1 11.5528 2.77223 4.11362 
19 3 1 6.8684 7.45383 5.13406 
20 3 3 8.27609 7.3803 5.54839 
21 3 2 9.13332 8.35823 4.74132 
22 3 2 10.6783 8.2214 5.14585 
23 3 1 11.2981 8.96177 3.97073 
24 3 1 8.6357 5.89024 5.43384 
25 4 1 6.46009 -0.154009 8.80176 
26 4 3 7.6486 -0.985707 8.2705 
27 4 2 8.71032 0.00682704 7.7824 
28 4 2 9.11401 0.79874 8.99688 
29 4 1 9.8917 2.1348 9.15187 
30 4 1 8.1267 -2.27967 8.88745 
31 5 1 6.13286 4.54882 3.29706 
32 5 3 4.98718 4.2719 4.41445 
33 5 2 4.09599 5.48382 4.50308 
34 5 2 3.11373 5.0513 5.52909 
35 5 1 1.80202 5.74083 5.65562 
36 5 1 4.18688 3.13453 3.93441 
37 6 1 6.64707 2.65219 0.637078 
38 6 3 6.43919 1.26767 1.33117 
39 6 2 7.27083 0.164836 1.19126 
40 6 2 6.82993 -1.0558 2.08671 
41 6 1 7.64954 -2.24667 1.9349 
42 6 1 4.9527 1.07353 1.13797 
43 7 1 7.31835 4.4102 8.33096 
44 7 3 6.35111 3.72592 7.42702 
45 7 2 5.0106 3.50652 8.22385 
46 7 2 3.9711 2.6515 7.37435 
47 7 1 2.75149 2.69732 8.21726 
48 7 1 7.04183 2.44174 7.06583 
49 8 1 -0.894776 4.1607 12.3872 
50 8 3 -0.909067 5.6628 12.2191 
51 8 2 -0.941458 6.03032 10.7525 
52 8 2 -0.202712 5.00526 9.89888 
53 8 1 -0.223227 5.39461 8.3819 
54 8 1 0.432276 6.21531 12.7614 
55 9 1 3.687 9.29192 5.87212 
56 9 3 4.18023 10.5746 5.21409 
57 9 2 3.71431 10.3032 3.76275 
58 9 2 3.86099 8.76705 3.6992 
59 9 1 3.84096 8.13831 2.35321 
60 9 1 5.65031 10.4117 5.27293 
ITEM: TIMESTEP
3000
ITEM: NUMBER OF ATOMS
60
ITEM: BOX BOUNDS pp pp pp
0.0000000000000000e+00 1.0616800000000000e+01
0.0000000000000000e+00 1.0616800000000000e+01
0.0000000000000000e+00 1.0616800000000000e+01
ITEM: ATOMS id mol type xu yu zu 
1 0 1 1.51199 8.81533 -2.4908 
2 0 3 2.23725 8.76138 -1.1875 
3 0 2 1.20084 9.05395 -0.128829 
4 0 2 1.18106 10.5749 -0.104582 
5 0 1 0.771982 10.8833 1.46453 
6 0 1 3.32571 9.86103 -1.06212 
7 1 1 5.735 6.21525 10.729 
8 1 3 4.51317 6.41448 9.75882 
9 1 2 3.26413 5.45887 10.1899 
10 1 2 3.71651 4.34099 11.1216 
11 1 1 2.88183 3.16714 11.2634 
12 1 1 4.93829 6.77901 8.31295 
13 2 1 11.4589 1.02179 6.62846 
14 2 3 11.0755 1.86875 5.53351 
15 2 2 9.70249 2.5687 5.74237 
16 2 2 8.82475 2.26226 4.59396 
17 2 1 8.92194 0.831443 4.07048 
18 2 1 11.7517 2.02944 4.22479 
19 3 1 7.3208 6.537 6.25237 
20 3 3 8.73299 6.97996 6.14137 
21 3 2 9.11796 8.01696 5.13911 
22 3 2 10.6507 8.17911 5.04776 
23 3 1 11.0245 8.31681 3.65706 
24 3 1 9.70027 5.80705 6.04444 
25 4 1 6.47872 -0.370012 8.08061 
26 4 3 7.95225 -0.198719 8.03132 
27 4 2 8.35954 1.20493 8.18536 
28 4 2 9.36945 1.71922 9.28842 
29 4 1 9.85826 3.08924 9.03941 
30 4 1 8.90828 -1.23415 8.66826 
31 5 1 5.41376 5.67217 3.34475 
32 5 3 4.41134 5.01649 4.23078 
33 5 2 2.98764 5.34352 3.77194 
34 5 2 2.07341 5.38464 5.03671 
35 5 1 2.6514 6.40748 6.12156 
36 5 1 4.30001 3.62829 3.59289 
37 6 1 6.90901 2.4539 1.22981 
38 6 3 6.64108 0.978785 1.51064 
39 6 2 7.63727 0.133694 1.12449 
40 6 2 7.08438 -1.30814 1.24682 
41 6 1 8.21163 -1.81017 1.96868 
42 6 1 5.23038 0.708076 1.03481 
43 7 1 6.96973 4.35078 8.2192 
44 7 3 5.83028 3.60256 7.62615 
45 7 2 5.18444 2.65652 8.60534 
46 7 2 4.02407 2.02017 7.86888 
47 7 1 3.21125 3.29288 7.34307 
48 7 1 6.23596 2.71592 6.48487 
49 8 1 -1.79334 5.46547 13.3008 
50 8 3 -0.353729 4.98496 12.8483 
51 8 2 0.179214 5.73403 11.6469 
52 8 2 -1.07303 6.10533 10.9328 
53 8 1 -0.650464 6.31673 9.53003 
54 8 1 -0.573037 3.52712 12.4511 
55 9 1 3.83321 9.76201 5.92083 
56 9 3 4.48353 10.3199 4.71674 
57 9 2 3.60122 10.2564 3.55279 
58 9 2 3.77227 8.79446 3.2972 
59 9 1 4.03891 8.41861 1.94597 
60 9 1 6.01035 10.4174 4.67176 
ITEM: TIMESTEP
4000
ITEM: NUMBER OF ATOMS
60
ITEM: BOX BOUNDS pp pp pp
0.0000000000000000e+00 1.0616800000000000e+01
0.0000000000000000e+00 1.0616800000000000e+01
0.0000000000000000e+00 1.0616800000000000e+01
ITEM: ATOMS id mol type xu yu zu 
1 0 1 0.905306 8.6373 -2.20905 
2 0 3 1.41046 9.68771 -1.3104 
3 0 2 0.589319 9.71077 -0.0492635 
4 0 2 0.82864 11.1189 0.715313 
5 0 1 -0.57253 11.6416 1.02225 
6 0 1 2.8846 9.58204 -0.681795 
7 1 1 6.39353 6.00498 10.5099 
8 1 3 5.02483 6.63793 10.273 
9 1 2 3.94329 6.05974 11.1016 
10 1 2 4.00338 4.57678 10.9653 
11 1 1 2.62634 4.00851 11.721 
12 1 1 4.85832 6.87641 8.80003 
13 2 1 11.8144 1.7876 5.9137 
14 2 3 11.1733 2.64944 4.87813 
15 2 2 9.6575 2.97454 4.65314 
16 2 2 8.85684 1.93129 4.03062 
17 2 1 8.54087 0.803246 4.97714 
18 2 1 11.8859 2.39276 3.57334 
19 3 1 7.89141 6.57944 6.35708 
20 3 3 9.26523 6.93354 5.81648 
21 3 2 9.5678 8.45793 5.526 
22 3 2 10.7975 8.90415 4.79826 
23 3 1 10.5159 9.16938 3.27416 
24 3 1 9.53322 6.19711 4.47598 
25 4 1 6.03812 -0.554768 9.15355 
26 4 3 7.51369 -0.719747 8.57558 
27 4 2 7.97343 0.686205 8.94501 
28 4 2 9.16158 1.10259 7.98265 
29 4 1 9.97685 2.14339 8.60814 
30 4 1 8.35073 -1.84787 9.08854 
31 5 1 6.5983 4.82128 3.72003 
32 5 3 5.17856 4.64191 4.30572 
33 5 2 3.98092 5.5246 3.75123 
34 5 2 2.91264 5.25404 4.74092 
35 5 1 2.9173 6.11536 5.91058 
36 5 1 4.96307 3.21646 4.01328 
37 6 1 6.82518 2.30276 1.46356 
38 6 3 6.12792 0.924748 1.35994 
39 6 2 7.15243 -0.161306 1.90421 
40 6 2 6.52297 -1.43461 2.04018 
41 6 1 7.31808 -2.57435 2.54775 
42 6 1 4.61355 0.752986 1.31132 
43 7 1 7.36858 4.00559 8.10966 
44 7 3 6.10275 3.50954 7.44579 
45 7 2 5.23136 2.978 8.49503 
46 7 2 4.03662 2.11312 8.12335 
47 7 1 2.66679 2.07988 8.88536 
48 7 1 6.38877 2.23326 6.7608 
49 8 1 0.303945 6.4061 11.7839 
50 8 3 -0.520371 5.32864 11.1911 
51 8 2 -0.959779 5.89909 9.89943 
52 8 2 -0.263488 5.41109 8.6282 
53 8 1 1.27585 5.13027 8.47689 
54 8 1 -1.78944 5.02438 11.9779 
55 9 1 3.53709 9.45147 6.54618 
56 9 3 4.57382 10.175 5.70929 
57 9 2 4.03111 10.3244 4.28583 
58 9 2 3.52959 9.00699 3.96604 
59 9 1 3.04601 8.48862 2.59286 
60 9 1 5.97939 9.49262 5.74006 
ITEM: TIMESTEP
5000
ITEM: NUMBER OF ATOMS
60
ITEM: BOX BOUNDS pp pp pp
0.0000000000000000e+00 1.0616800000000000e+01
0.0000000000000000e+00 1.0616800000000000e+01
0.0000000000000000e+00 1.0616800000000000e+01
ITEM: ATOMS id mol type xu yu zu 
1 0 1 1.89225 9.46961 -2.28395 
2 0 3 1.98558 10.1857 -1.0097 
3 0 2 1.1057 9.81499 0.0892412 
4 0 2 1.3336 10.8743 1.22664 
5 0 1 0.177588 11.7928 1.74137 
6 0 1 3.58451 10.2817 -0.738889 
7 1 1 5.44386 5.83696 10.9166 
8 1 3 4.59071 5.79177 9.69664 
9 1 2 3.20383 5.30258 10.1926 
10 1 2 3.31183 3.83427 10.7473 
11 1 1 2.46492 2.83872 9.92897 
12 1 1 4.61138 7.00098 8.96057 
13 2 1 11.7482 0.571175 5.8084 
14 2 3 11.2097 1.9546 5.80625 
15 2 2 9.72193 1.90471 5.63297 
16 2 2 9.44817 0.638818 4.92684 
17 2 1 7.96658 0.298813 5.23619 
18 2 1 11.9061 2.57904 4.53401 
19 3 1 7.42282 7.34853 5.6405 
20 3 3 8.75749 6.75986 6.14106 
21 3 2 9.54361 7.92364 5.66607 
22 3 2 9.22156 7.94779 4.21244 
23 3 1 10.3011 8.6574 3.49929 
24 3 1 9.33927 5.45345 5.55212 
25 4 1 6.5221 -0.551967 8.43161 
26 4 3 7.8771 -1.28086 8.30344 
27 4 2 8.92911 -0.266588 8.78745 
28 4 2 8.71242 1.23973 8.8617 
29 4 1 9.9769 2.1655 9.14086 
30 4 1 7.70022 -2.45244 9.14884 
31 5 1 6.14028 5.01515 3.62821 
32 5 3 4.70657 5.52411 3.58642 
33 5 2 4.17712 5.989 4.96813 
34 5 2 2.69295 5.96726 4.83031 
35 5 1 2.17903 6.61629 6.09917 
36 5 1 3.89595 4.22669 3.49991 
37 6 1 7.3585 2.55366 0.843352 
38 6 3 6.80912 1.6783 1.8989 
39 6 2 7.62135 0.372884 1.76373 
40 6 2 6.81627 -0.855816 2.29672 
41 6 1 7.09694 -2.26073 1.89799 
42 6 1 5.26581 1.72825 1.45852 
43 7 1 7.46605 4.37896 8.56213 
44 7 3 6.37683 3.78075 7.70319 
45 7 2 5.7749 2.76868 8.60433 
46 7 2 4.62081 2.24898 7.68721 
47 7 1 3.7391 3.15425 6.92033 
48 7 1 6.85197 3.22351 6.32606 
49 8 1 0.657017 4.96914 12.8476 
50 8 3 -0.431447 5.13834 11.8758 
51 8 2 0.0312642 6.16656 10.9116 
52 8 2 -0.631924 5.83357 9.56761 
53 8 1 0.491805 5.28085 8.64307 
54 8 1 -1.80899 5.5927 12.2805 
55 9 1 4.29216 9.2077 6.0076 
56 9 3 4.09017 10.1554 4.87064 
57 9 2 3.27459 9.81548 3.60999 
58 9 2 3.86579 8.80331 2.68732 
59 9 1 2.86501 7.8955 2.04553 
60 9 1 4.86239 11.4037 4.72212 
ITEM: TIMESTEP
6000
ITEM: NUMBER OF ATOMS
60
ITEM: BOX BOUNDS pp pp pp
0.0000000000000000e+00 1.0616800000000000e+01
0.0000000000000000e+00 1.0616800000000000e+01
0.0000000000000000e+00 1.0616800000000000e+01
ITEM: ATOMS id mol type xu yu zu 
1 0 1 1.31056 8.66992 -2.09109 
2 0 3 1.80318 9.16997 -0.856936 
3 0 2 0.705444 9.50605 0.141843 
4 0 2 0.912235 10.3411 1.40659 
5 0 1 0.433811 11.7876 1.43347 
6 0 1 2.88304 10.2311 -0.693871 
7 1 1 5.74408 6.12492 10.999 
8 1 3 4.73225 6.9102 10.2315 
9 1 2 3.79914 5.903 10.1033 
10 1 2 4.35814 4.70296 10.5721 
11 1 1 3.39272 3.49698 10.6812 
12 1 1 5.096 7.47138 8.79927 
13 2 1 11.2912 1.16154 5.26247 
14 2 3 10.6001 2.31565 4.51794 
15 2 2 9.1863 1.78124 4.29923 
16 2 2 9.07009 0.374099 4.78958 
17 2 1 7.50195 0.0665256 5.08891 
18 2 1 10.4343 3.52112 5.49745 
19 3 1 6.95243 7.31996 6.27248 
20 3 3 8.08625 6.57283 5.67492 
21 3 2 9.21613 7.64553 5.68374 
22 3 2 10.5986 7.29475 5.11586 
23 3 1 11.4889 8.43552 4.61598 
24 3 1 7.57113 6.29658 4.31741 
25 4 1 6.57615 -0.290779 8.53186 
26 4 3 7.96015 -0.439332 9.15272 
27 4 2 8.80672 0.466007 8.32499 
28 4 2 9.71597 1.20837 9.21999 
29 4 1 10.9874 2.01835 8.76187 
30 4 1 8.49881 -1.80355 9.04641 
31 5 1 5.34538 4.01554 3.35774 
32 5 3 4.01204 4.68301 3.65762 
33 5 2 4.09082 5.63993 4.84528 
34 5 2 2.74631 5.77343 5.51369 
35 5 1 2.99045 6.53009 6.745 
36 5 1 2.90526 3.66089 3.26992 
37 6 1 7.21382 2.41805 0.784855 
38 6 3 6.82926 1.35706 1.7843 
39 6 2 7.97395 0.190659 1.81281 
40 6 2 7.5039 -1.18979 2.1398 
41 6 1 8.75733 -2.03814 1.9277 
42 6 1 5.53716 0.664283 1.30637 
43 7 1 6.95094 4.62695 8.44449 
44 7 3 6.24158 3.76761 7.40151 
45 7 2 5.54031 2.52253 8.0449 
46 7 2 4.40907 2.50219 7.01782 
47 7 1 3.13216 2.9924 7.76924 
48 7 1 7.14285 3.33055 6.29557 
49 8 1 0.451994 6.01176 13.0376 
50 8 3 -0.211542 5.16422 11.882 
51 8 2 0.444559 5.6695 10.5806 
52 8 2 -0.712292 5.70587 9.49618 
53 8 1 -0.431029 5.61778 8.07839 
54 8 1 -1.61493 5.55876 11.9495 
55 9 1 3.69537 9.8679 6.35605 
56 9 3 4.02263 9.98898 4.88202 
57 9 2 4.97171 8.88865 4.27613 
58 9 2 4.64581 8.38242 2.79182 
59 9 1 3.17346 8.10651 2.68023 
60 9 1 3.78094 11.3903 4.26575 
ITEM: TIMESTEP
7000
ITEM: NUMBER OF ATOMS
60
ITEM: BOX BOUNDS pp pp pp
0.0000000000000000e+00 1.0616800000000000e+01
0.0000000000000000e+00 1.0616800000000000e+01
0.0000000000000000e+00 1.0616800000000000e+01
ITEM: ATOMS id mol type xu yu zu 
1 0 1 1.73078 8.56976 -1.84797 
2 0 3 2.30224 9.42344 -0.618676 
3 0 2 1.44972 9.36692 0.689396 
4 0 2 1.75725 10.6871 1.39445 
5 0 1 0.463522 11.341 1.94743 
6 0 1 2.36534 10.8303 -1.16312 
7 1 1 5.94613 6.24181 11.8354 
8 1 3 5.06572 6.60228 10.583 
9 1 2 4.0443 5.491 10.1299 
10 1 2 3.45732 4.755 11.2925 
11 1 1 2.51844 3.66334 10.8864 
12 1 1 5.32078 7.5859 9.51838 
13 2 1 11.1747 1.60852 5.20775 
14 2 3 9.73595 2.05503 5.18951 
15 2 2 8.89232 2.11351 3.90028 
16 2 2 7.72328 1.39913 4.25343 
17 2 1 8.10248 0.0867998 4.79362 
18 2 1 10.1303 3.57421 5.58813 
19 3 1 7.15245 7.0661 5.38524 
20 3 3 8.40134 6.96248 4.57175 
21 3 2 9.51355 6.86917 5.68724 
22 3 2 10.3146 8.04591 6.16474 
23 3 1 11.4719 8.56338 5.39022 
24 3 1 8.03135 5.64282 3.88145 
25 4 1 7.32218 0.536194 8.45024 
26 4 3 8.44196 -0.588842 8.22986 
27 4 2 9.68633 0.0594853 8.59371 
28 4 2 9.51411 1.38481 9.32028 
29 4 1 10.4825 2.28667 8.56965 
30 4 1 8.30995 -1.94201 8.86726 
31 5 1 4.86337 3.17994 3.23678 
32 5 3 3.69337 3.76385 4.09652 
33 5 2 4.05669 5.05769 4.73601 
34 5 2 2.87259 5.52864 5.60109 
35 5 1 3.35771 6.48057 6.74421 
36 5 1 2.40858 3.87162 3.4618 
37 6 1 6.65404 2.55693 0.667611 
38 6 3 6.29251 1.08007 1.16509 
39 6 2 7.4976 0.22381 1.0438 
40 6 2 7.41874 -1.19244 1.57403 
41 6 1 8.79723 -1.69058 1.80067 
42 6 1 5.04541 0.416736 0.364338 
43 7 1 7.31562 4.46208 8.77062 
44 7 3 6.2818 4.22728 7.7414 
45 7 2 5.37842 3.16416 8.39293 
46 7 2 4.42851 2.68754 7.34455 
47 7 1 2.93301 2.92301 7.55198 
48 7 1 6.92906 3.51335 6.69511 
49 8 1 0.104057 6.329 12.615 
50 8 3 0.0646918 5.52886 11.3235 
51 8 2 -0.937588 6.25551 10.3668 
52 8 2 -0.484506 5.83027 8.88764 
53 8 1 1.00998 5.61063 8.45286 
54 8 1 -0.76232 4.32434 11.6813 
55 9 1 4.90482 9.60034 6.45568 
56 9 3 4.35655 9.64596 5.00313 
57 9 2 5.06681 9.00863 3.85443 
58 9 2 4.14087 8.78711 2.70639 
59 9 1 3.14667 7.76881 3.21333 
60 9 1 3.5235 10.8771 4.89897 
ITEM: TIMESTEP
8000
ITEM: NUMBER OF ATOMS
60
ITEM: BOX BOUNDS pp pp pp
0.0000000000000000e+00 1.0616800000000000e+01
0.0000000000000000e+00 1.0616800000000000e+01
0.0000000000000000e+00 1.0616800000000000e+01
ITEM: ATOMS id mol type xu yu zu 
1 0 1 1.50554 8.68538 -2.10777 
2 0 3 2.2239 9.24737 -0.955352 
3 0 2 1.15165 9.99384 -0.0454573 
4 0 2 1.81919 10.8923 1.01283 
5 0 1 1.05076 11.9861 1.51773 
6 0 1 3.34465 10.1158 -1.5346 
7 1 1 6.61427 6.69109 11.0961 
8 1 3 5.20597 7.10412 10.621 
9 1 2 4.06838 6.22902 11.146 
10 1 2 3.9113 4.8177 10.5382 
11 1 1 2.8138 3.71331 10.703 
12 1 1 5.24933 7.2243 9.05041 
13 2 1 11.835 1.37453 5.28984 
14 2 3 10.7585 2.33908 4.62001 
15 2 2 9.80526 1.38397 4.22024 
16 2 2 8.32735 1.43524 4.40381 
17 2 1 7.74476 0.0783196 4.75695 
18 2 1 10.3082 3.27482 5.74241 
19 3 1 7.20945 7.21022 6.26198 
20 3 3 8.10116 7.22729 5.06172 
21 3 2 9.11189 6.21678 5.10657 
22 3 2 10.1964 6.85578 5.88978 
23 3 1 10.5105 8.40968 5.76097 
24 3 1 7.28176 7.0909 3.81534 
25 4 1 6.77616 -0.385366 8.56806 
26 4 3 8.13302 -0.736766 8.04965 
27 4 2 8.91979 0.490855 7.7877 
28 4 2 9.02589 1.11648 9.16477 
29 4 1 10.1614 2.05079 9.10439 
30 4 1 8.7225 -1.61636 9.08635 
31 5 1 5.95024 4.30939 3.54355 
32 5 3 4.53647 4.59885 3.61747 
33 5 2 4.12522 5.4037 4.86114 
34 5 2 2.79739 5.08088 5.44681 
35 5 1 2.47503 6.033 6.59867 
36 5 1 3.65563 3.4003 3.44108 
37 6 1 6.35551 2.73913 0.283948 
38 6 3 6.36702 1.72397 1.42074 
39 6 2 7.53644 0.803716 1.28369 
40 6 2 7.3939 -0.681271 1.58518 
41 6 1 8.89295 -1.19389 1.6834 
42 6 1 5.13705 0.888236 1.1421 
43 7 1 7.77514 4.20053 8.38397 
44 7 3 6.69061 3.97094 7.36774 
45 7 2 5.14505 4.12154 7.64009 
46 7 2 4.68666 2.6388 7.65419 
47 7 1 3.17347 2.41448 7.74252 
48 7 1 6.50617 2.51212 6.93006 
49 8 1 0.908877 5.36697 13.2026 
50 8 3 -0.120275 4.89701 12.0425 
51 8 2 -0.310789 6.12174 11.1353 
52 8 2 -0.723042 5.87651 9.68679 
53 8 1 0.454917 5.16282 9.15114 
54 8 1 -1.52005 4.27273 12.4261 
55 9 1 4.20975 8.74987 5.74732 
56 9 3 3.90108 9.65192 4.60611 
57 9 2 4.17996 8.85793 3.36522 
58 9 2 2.8626 7.97688 3.36884 
59 9 1 1.64275 8.82205 3.26981 
60 9 1 4.64481 11.0493 4.62091 
ITEM: TIMESTEP
9000
ITEM: NUMBER OF ATOMS
60
ITEM: BOX BOUNDS pp pp pp
0.0000000000000000e+00 1.0616800000000000e+01
0.0000000000000000e+00 1.0616800000000000e+01
0.0000000000000000e+00 1.0616800000000000e+01
ITEM: ATOMS id mol type xu yu zu 
1 0 1 1.19561 9.49687 -2.59705 
2 0 3 2.26507 9.05681 -1.60226 
3 0 2 1.77756 9.46412 -0.24732 
4 0 2 1.61113 10.9733 -0.00698323 
5 0 1 0.888936 10.8869 1.33583 
6 0 1 3.51493 9.96933 -1.86515 
7 1 1 5.82222 7.55621 11.5118 
8 1 3 5.04339 6.89303 10.2151 
9 1 2 3.81068 6.31888 10.6933 
10 1 2 3.43242 5.09412 9.99344 
11 1 1 3.43278 3.76317 10.6666 
12 1 1 5.6542 5.7975 9.41134 
13 2 1 12.045 1.74791 4.51954 
14 2 3 10.889 1.84588 5.56389 
15 2 2 9.68149 1.66859 4.61603 
16 2 2 9.06048 0.330103 4.87026 
17 2 1 10.2669 -0.614045 5.25816 
18 2 1 10.9329 3.26745 5.79886 
19 3 1 5.74372 7.83881 6.73347 
20 3 3 6.95983 7.65264 5.82948 
21 3 2 8.17447 7.03237 6.56132 
22 3 2 9.56473 6.90645 5.91767 
23 3 1 10.48 6.55028 7.0475 
24 3 1 6.75308 7.25052 4.38544 
25 4 1 6.98537 0.223437 7.66784 
26 4 3 8.09836 0.428576 8.74485 
27 4 2 9.20096 1.38387 8.36755 
28 4 2 9.91639 2.0808 9.47529 
29 4 1 11.0694 3.23881 9.08546 
30 4 1 8.86599 -0.811843 9.02593 
31 5 1 5.56319 4.79036 2.59124 
32 5 3 4.10892 4.63279 3.29582 
33 5 2 4.18872 5.12281 4.66791 
34 5 2 2.78014 5.05595 5.17658 
35 5 1 2.83967 5.6449 6.46652 
36 5 1 4.04465 3.13876 3.25504 
37 6 1 6.6351 2.49555 0.375029 
38 6 3 6.46761 1.32958 1.30678 
39 6 2 7.80261 0.606748 1.52476 
40 6 2 7.66419 -0.811318 1.9569 
41 6 1 8.98719 -1.64718 1.9539 
42 6 1 5.35409 0.300164 0.897209 
43 7 1 7.80593 4.19198 7.94645 
44 7 3 6.99013 3.4857 6.83824 
45 7 2 5.4126 3.41304 7.12907 
46 7 2 4.56107 2.15644 6.71592 
47 7 1 3.24661 2.23767 7.47685 
48 7 1 7.37163 3.68198 5.33666 
49 8 1 0.93368 4.18085 12.5503 
50 8 3 -0.597304 4.44609 12.7624 
51 8 2 -1.22377 4.70184 11.3932 
52 8 2 -0.50171 5.96955 11.0457 
53 8 1 -1.52433 6.58262 10.1009 
54 8 1 -0.885359 5.71645 13.5725 
55 9 1 3.26682 9.92433 5.35731 
56 9 3 3.89808 10.3006 4.03817 
57 9 2 3.5471 8.93423 3.52666 
58 9 2 2.05276 8.63056 3.51982 
59 9 1 1.5963 7.30752 2.92771 
60 9 1 5.36894 10.4415 4.48177 
ITEM: TIMESTEP
10000
ITEM: NUMBER OF ATOMS
60
ITEM: BOX BOUNDS pp pp pp
0.0000000000000000e+00 1.0616800000000000e+01
0.0000000000000000e+00 1.0616800000000000e+01
0.0000000000000000e+00 1.0616800000000000e+01
ITEM: ATOMS id mol type xu yu zu 
1 0 1 1.71686 10.8757 -2.2322 
2 0 3 2.51601 9.77146 -1.61689 
3 0 2 1.67346 9.57439 -0.434998 
4 0 2 1.4558 11.0037 0.0798717 
5 0 1 0.193149 11.2941 0.850447 
6 0 1 3.93062 10.0807 -1.2237 
7 1 1 4.88799 7.04381 11.03 
8 1 3 3.99471 6.49876 9.91341 
9 1 2 2.77763 5.89007 10.7442 
10 1 2 2.41373 4.69254 10.0289 
11 1 1 2.51997 3.40331 10.7979 
12 1 1 4.74968 5.3867 9.18512 
13 2 1 12.3053 2.25103 3.28513 
14 2 3 11.7092 1.61497 4.44148 
15 2 2 10.3429 0.901939 4.27902 
16 2 2 10.1037 -0.0730126 5.39431 
17 2 1 11.0445 -1.27922 5.4311 
18 2 1 11.6344 2.68404 5.57757 
19 3 1 6.2089 7.4604 7.39107 
20 3 3 7.34853 6.85449 6.65031 
21 3 2 8.58312 6.16161 7.32832 
22 3 2 10.1255 6.31244 7.14947 
23 3 1 10.8643 6.95321 8.28912 
24 3 1 8.11007 7.92749 5.96577 
25 4 1 7.28331 0.323432 8.15752 
26 4 3 8.5142 0.0809465 9.04455 
27 4 2 9.26626 1.13692 8.35053 
28 4 2 8.87769 2.4885 9.10775 
29 4 1 10.0908 3.40173 9.02967 
30 4 1 9.12842 -1.24535 9.04014 
31 5 1 6.54034 5.79082 2.97261 
32 5 3 5.03775 5.5611 3.34365 
33 5 2 4.5248 5.89687 4.76537 
34 5 2 3.02043 5.68849 5.13616 
35 5 1 2.91072 6.13346 6.59014 
36 5 1 4.32668 4.35925 2.78292 
37 6 1 6.04345 2.74255 0.382442 
38 6 3 5.84303 1.41021 0.969836 
39 6 2 7.11131 0.63159 1.40808 
40 6 2 7.03607 -0.926623 1.63791 
41 6 1 8.02629 -1.30899 2.74313 
42 6 1 4.57807 1.25927 1.90303 
43 7 1 8.41769 3.35281 5.5227 
44 7 3 7.04049 3.08985 5.27088 
45 7 2 6.20895 2.8446 6.4322 
46 7 2 4.71581 2.61522 5.97052 
47 7 1 3.89131 2.43941 7.15853 
48 7 1 6.87211 2.01908 4.2351 
49 8 1 -0.519732 5.4485 14.1251 
50 8 3 -0.556469 4.64455 12.8104 
51 8 2 -0.428885 5.71417 11.6828 
52 8 2 -1.35126 6.88462 11.2815 
53 8 1 -2.61792 6.40876 10.6522 
54 8 1 -1.8488 3.75734 12.6222 
55 9 1 3.31854 9.16956 5.58459 
56 9 3 4.2515 9.61546 4.45446 
57 9 2 4.03226 8.73716 3.23166 
58 9 2 2.7727 9.2798 2.6533 
59 9 1 1.91842 7.95306 2.51575 
60 9 1 5.66714 9.47391 5.016 
ITEM: TIMESTEP
11000
ITEM: NUMBER OF ATOMS
60
ITEM: BOX BOUNDS pp pp pp
0.0000000000000000e+00 1.0616800000000000e+01
0.0000000000000000e+00 1.0616800000000000e+01
0.0000000000000000e+00 1.0616800000000000e+01
ITEM: ATOMS id mol type xu yu zu 
1 0 1 1.47215 8.51607 -1.09333 
2 0 3 2.42927 9.63825 -1.57922 
3 0 2 1.65626 10.8494 -1.3739 
4 0 2 1.89172 10.8097 0.134022 
5 0 1 1.03204 11.7828 0.95634 
6 0 1 3.65972 9.93044 -0.60434 
7 1 1 5.91219 7.56362 11.1606 
8 1 3 5.3689 6.87741 9.94347 
9 1 2 4.01934 6.38548 10.4518 
10 1 2 3.65693 5.38087 9.45448 
11 1 1 2.39227 4.54185 9.82377 
12 1 1 6.1962 5.71681 9.44156 
13 2 1 12.6308 2.01556 4.43716 
14 2 3 11.7353 1.55294 5.48603 
15 2 2 10.1982 1.1335 5.3083 
16 2 2 10.1661 -0.473248 5.24804 
17 2 1 10.8261 -1.18894 6.32512 
18 2 1 11.9535 2.5193 6.63018 
19 3 1 7.19083 6.32507 5.91988 
20 3 3 8.62255 6.91141 5.53884 
21 3 2 9.79441 5.90521 5.69963 
22 3 2 9.75809 5.30933 7.05904 
23 3 1 9.66918 6.49883 8.06258 
24 3 1 8.43859 7.67016 4.18822 
25 4 1 6.39695 -1.20462 7.68526 
26 4 3 7.3397 -0.402572 8.61566 
27 4 2 7.81549 0.964884 8.12833 
28 4 2 8.80853 1.52233 9.12054 
29 4 1 8.75859 3.00754 9.03414 
30 4 1 8.62109 -1.16169 8.89622 
31 5 1 5.15415 5.84269 3.56859 
32 5 3 3.61034 5.62009 3.37797 
33 5 2 2.82886 5.41028 4.66175 
34 5 2 2.60011 6.59999 5.56158 
35 5 1 3.49714 6.88345 6.7726 
36 5 1 3.49972 4.38022 2.50869 
37 6 1 5.95772 3.08084 0.750495 
38 6 3 5.97136 1.5875 0.725765 
39 6 2 7.00805 1.29296 1.76153 
40 6 2 7.92244 0.124529 1.36439 
41 6 1 8.92492 -0.0146048 2.57809 
42 6 1 4.66123 1.47813 1.35734 
43 7 1 7.87645 3.08035 5.61354 
44 7 3 6.48562 2.54787 5.85022 
45 7 2 5.81729 3.64753 6.68475 
46 7 2 4.5373 3.252 7.17928 
47 7 1 4.41342 1.88551 7.59024 
48 7 1 5.71103 2.56323 4.56399 
49 8 1 0.166339 3.90526 13.5809 
50 8 3 -0.967635 3.74808 12.6549 
51 8 2 -0.529149 4.86937 11.6495 
52 8 2 -0.901064 6.20339 12.1833 
53 8 1 -1.21268 7.125 11.0932 
54 8 1 -2.0301 4.63099 13.2904 
55 9 1 3.86298 9.7576 5.48254 
56 9 3 4.51331 9.55252 4.03166 
57 9 2 3.73895 9.05248 2.84007 
58 9 2 2.24594 8.95193 3.31795 
59 9 1 1.31492 8.32846 2.34446 
60 9 1 5.96907 9.78546 3.78062 
ITEM: TIMESTEP
12000
ITEM: NUMBER OF ATOMS
60
ITEM: BOX BOUNDS pp pp pp
0.0000000000000000e+00 1.0616800000000000e+01
0.0000000000000000e+00 1.0616800000000000e+01
0.0000000000000000e+00 1.0616800000000000e+01
ITEM: ATOMS id mol type xu yu zu 
1 0 1 2.38861 9.18008 -1.23154 
2 0 3 3.20635 10.4695 -1.49707 
3 0 2 2.65229 11.7374 -0.803017 
4 0 2 1.50544 11.4138 0.20291 
5 0 1 1.6221 12.1987 1.39863 
6 0 1 4.07598 10.5924 -2.8144 
7 1 1 4.96822 8.43781 10.824 
8 1 3 4.87734 6.91134 10.3809 
9 1 2 3.51144 6.22178 10.3574 
10 1 2 3.28597 4.69118 10.0451 
11 1 1 1.78612 4.44757 10.2853 
12 1 1 5.78664 6.50608 9.25709 
13 2 1 11.2412 2.12493 4.67859 
14 2 3 12.2264 1.7046 5.71332 
15 2 2 11.4408 0.882982 6.72097 
16 2 2 10.7894 -0.371593 6.24438 
17 2 1 11.8973 -1.4249 6.32973 
18 2 1 12.8044 2.95839 6.47695 
19 3 1 7.06275 6.4347 5.65675 
20 3 3 8.37126 7.1904 5.71632 
21 3 2 9.41639 6.12552 5.3743 
22 3 2 9.62119 5.37148 6.61871 
23 3 1 10.5327 6.11105 7.58299 
24 3 1 8.39004 8.27773 4.68405 
25 4 1 7.12607 -1.49854 8.26463 
26 4 3 8.09084 -0.792093 9.19308 
27 4 2 8.37622 0.552373 8.65685 
28 4 2 9.34947 1.09669 9.50124 
29 4 1 9.62466 2.50794 9.07964 
30 4 1 9.24151 -1.418 8.61076 
31 5 1 3.93771 4.70779 3.03959 
32 5 3 2.58686 4.66947 3.72423 
33 5 2 2.59624 5.60168 4.86422 
34 5 2 3.69146 5.6856 5.87175 
35 5 1 3.32583 6.9328 6.64779 
36 5 1 1.38355 5.04197 2.94723 
37 6 1 5.79512 2.69087 0.568423 
38 6 3 5.80216 1.30372 0.973237 
39 6 2 7.13713 1.16521 1.72769 
40 6 2 7.47596 -0.20489 2.25212 
41 6 1 8.9926 -0.238498 2.12128 
42 6 1 4.70831 1.27088 1.96833 
43 7 1 7.44992 0.939988 5.30673 
44 7 3 6.57637 2.03656 5.49644 
45 7 2 7.33436 2.88326 6.59448 
46 7 2 6.58263 3.7263 7.59494 
47 7 1 5.30091 2.97651 7.92378 
48 7 1 6.56878 2.86643 4.31127 
49 8 1 -1.66958 3.88246 12.8693 
50 8 3 -2.46913 4.81091 11.9944 
51 8 2 -1.73039 5.46563 10.8949 
52 8 2 -1.05339 6.80666 11.4933 
53 8 1 -0.00843902 7.19443 10.5147 
54 8 1 -3.41074 5.62713 12.9043 
55 9 1 3.90836 10.1742 4.62742 
56 9 3 4.21424 9.05104 3.63082 
57 9 2 2.94314 8.40641 3.14517 
58 9 2 1.79765 9.41257 2.94664 
59 9 1 0.645046 8.34404 3.0231 
60 9 1 5.40668 8.12617 3.68308 
ITEM: TIMESTEP
13000
ITEM: NUMBER OF ATOMS
60
ITEM: BOX BOUNDS pp pp pp
0.0000000000000000e+00 1.0616800000000000e+01
0.0000000000000000e+00 1.0616800000000000e+01
0.0000000000000000e+00 1.0616800000000000e+01
ITEM: ATOMS id mol type xu yu zu 
1 0 1 1.2945 9.20613 -3.21068 
2 0 3 1.95884 9.60947 -2.00478 
3 0 2 1.0995 10.182 -0.954077 
4 0 2 1.779 11.2112 -0.109257 
5 0 1 0.96033 11.674 1.01003 
6 0 1 3.3478 10.2692 -2.14142 
7 1 1 5.89847 7.68937 10.8918 
8 1 3 5.25292 6.52585 10.2361 
9 1 2 3.74367 6.298 10.0765 
10 1 2 3.3658 4.69229 10.0244 
11 1 1 1.94309 4.15262 10.072 
12 1 1 6.04318 6.32446 9.00957 
13 2 1 12.7692 1.95897 4.84356 
14 2 3 12.0945 1.70899 6.12883 
15 2 2 10.5789 2.0221 6.09411 
16 2 2 9.90826 1.15875 5.01677 
17 2 1 9.19438 -0.195381 5.45253 
18 2 1 12.9174 2.36936 7.21797 
19 3 1 7.75168 6.79721 5.89764 
20 3 3 9.3126 6.67366 5.75958 
21 3 2 9.93967 5.2595 6.11564 
22 3 2 10.0815 5.13677 7.59882 
23 3 1 10.6947 6.37448 8.05612 
24 3 1 9.85228 7.50437 4.59511 
25 4 1 6.56592 -1.30302 7.68827 
26 4 3 7.91685 -0.933603 8.27059 
27 4 2 7.90847 0.543194 8.79854 
28 4 2 9.10045 1.21032 9.37098 
29 4 1 8.95637 2.70386 9.65043 
30 4 1 8.64774 -1.94337 9.04445 
31 5 1 3.82164 5.30926 2.53862 
32 5 3 2.82383 4.92444 3.5724 
33 5 2 2.59449 6.15653 4.46721 
34 5 2 3.13356 5.99641 5.89548 
35 5 1 4.11631 6.81582 6.63019 
36 5 1 1.68257 4.26442 2.73194 
37 6 1 5.46256 0.611664 0.436956 
38 6 3 5.87209 1.74493 1.39621 
39 6 2 6.83863 1.39551 2.48994 
40 6 2 7.72133 0.517337 1.67399 
41 6 1 8.55596 -0.626338 2.23867 
42 6 1 4.59943 2.21997 2.04061 
43 7 1 6.17567 1.6648 5.45133 
44 7 3 6.8773 3.03651 5.39528 
45 7 2 7.05289 3.36054 6.79711 
46 7 2 5.68959 3.22769 7.53793 
47 7 1 5.94764 3.12607 9.01548 
48 7 1 5.77521 3.78672 4.79632 
49 8 1 -1.45609 4.42399 13.8932 
50 8 3 -1.87765 4.43109 12.3474 