ITEM: TIMESTEP
1250000
ITEM: NUMBER OF ATOMS
60
ITEM: BOX BOUNDS pp pp pp
-1.6769226669089772e+00 1.2293722666910558e+01
-1.6769226669089772e+00 1.2293722666910558e+01
-1.6769226669089772e+00 1.2293722666910558e+01
ITEM: ATOMS id mol type xu yu zu 
1 0 1 -40.0599 77.5936 16.1664 
2 0 3 -39.0671 76.6061 15.492 
3 0 2 -37.7847 76.4281 16.4243 
4 0 2 -38.2022 75.4866 17.593 
5 0 1 -37.1423 74.7634 18.3862 
6 0 1 -39.8235 75.4003 14.9105 
7 1 1 -47.6432 -73.4832 47.2418 
8 1 3 -47.3369 -72.1351 47.9232 
9 1 2 -46.7451 -72.2489 49.3558 
10 1 2 -47.6604 -73.048 50.325 
11 1 1 -46.9584 -73.4219 51.6725 
12 1 1 -48.4566 -71.1166 47.968 
13 2 1 -18.6006 16.0184 -0.186618 
14 2 3 -18.3472 17.2374 -1.01661 
15 2 2 -16.943 17.7803 -0.598927 
16 2 2 -16.62 19.2437 -0.964739 
17 2 1 -15.6518 19.9589 -0.022702 
18 2 1 -18.5375 16.859 -2.44939 
19 3 1 2.78896 42.6657 -19.5974 
20 3 3 1.58548 43.6348 -19.3871 
21 3 2 0.924999 43.2811 -18.0664 
22 3 2 -0.470824 43.8003 -17.7892 
23 3 1 -1.03822 43.4262 -16.3836 
24 3 1 2.05399 44.9898 -19.4874 
25 4 1 31.4871 -28.2006 27.8289 
26 4 3 32.4062 -27.2554 28.5073 
27 4 2 33.8013 -27.8662 28.6538 
28 4 2 33.7593 -29.0742 29.5861 
29 4 1 35.0795 -29.723 29.7567 
30 4 1 32.3825 -25.869 27.7826 
31 5 1 60.3763 -32.7759 -2.1997 
32 5 3 60.0398 -32.238 -3.62835 
33 5 2 60.51 -33.1531 -4.76301 
34 5 2 60.004 -32.653 -6.11114 
35 5 1 60.2315 -33.5589 -7.30355 
36 5 1 58.5517 -32.1118 -3.72897 
37 6 1 26.2679 34.8398 -46.509 
38 6 3 25.3892 34.0378 -47.4146 
39 6 2 25.5569 34.54 -48.8855 
40 6 2 26.9306 34.5122 -49.4607 
41 6 1 27.0365 35.2454 -50.8126 
42 6 1 23.9762 34.3547 -46.977 
43 7 1 16.7879 11.9804 5.36648 
44 7 3 15.7315 11.0356 4.68704 
45 7 2 14.4572 11.1877 5.49916 
46 7 2 14.486 10.6108 6.88583 
47 7 1 13.1974 10.6457 7.72087 
48 7 1 15.797 11.4792 3.2511 
49 8 1 35.3887 51.4665 -14.2284 
50 8 3 36.2764 50.2646 -14.4086 
51 8 2 37.4043 50.4334 -13.3801 
52 8 2 38.1539 51.8312 -13.5375 
53 8 1 39.3343 51.8067 -14.4376 
54 8 1 35.5267 48.9942 -14.2014 
55 9 1 -15.3575 -54.3698 47.5751 
56 9 3 -15.8227 -53.8371 46.2371 
57 9 2 -14.5379 -53.5651 45.3991 
58 9 2 -13.761 -54.7789 45.0796 
59 9 1 -12.6092 -54.3154 44.1659 
60 9 1 -16.5413 -52.4665 46.6131 
ITEM: TIMESTEP
1251000
ITEM: NUMBER OF ATOMS
60
ITEM: BOX BOUNDS pp pp pp
-1.6764779682499631e+00 1.2293277968251545e+01
-1.6764779682499631e+00 1.2293277968251545e+01
-1.6764779682499631e+00 1.2293277968251545e+01
ITEM: ATOMS id mol type xu yu zu 
1 0 1 -39.8684 75.5714 16.8538 
2 0 3 -38.4338 74.991 16.9138 
3 0 2 -37.5117 75.4409 18.0639 
4 0 2 -37.6835 74.6887 19.4124 
5 0 1 -36.4591 74.988 20.3279 
6 0 1 -38.4649 73.5467 16.5618 
7 1 1 -48.4513 -70.6747 48.7581 
8 1 3 -48.5736 -72.0027 47.9969 
9 1 2 -48.0536 -73.1675 48.7978 
10 1 2 -46.6969 -73.0631 49.4994 
11 1 1 -46.3705 -74.3165 50.3352 
12 1 1 -47.7397 -71.6915 46.7589 
13 2 1 -20.0416 19.2383 1.401 
14 2 3 -19.8729 18.0905 0.36751 
15 2 2 -18.6863 18.3444 -0.631129 
16 2 2 -18.6072 17.5968 -2.02953 
17 2 1 -17.344 17.9359 -2.91331 
18 2 1 -19.7926 16.6471 0.905064 
19 3 1 4.22009 44.2147 -19.0747 
20 3 3 3.55744 43.095 -19.9021 
21 3 2 2.55237 42.3836 -19.0093 
22 3 2 2.22601 40.9397 -19.3775 
23 3 1 1.02162 40.2434 -18.6774 
24 3 1 3.2096 43.525 -21.2705 
25 4 1 31.785 -29.1253 26.7343 
26 4 3 31.7357 -28.9757 28.2016 
27 4 2 33.1261 -28.6801 28.7241 
28 4 2 34.1683 -29.8088 28.5444 
29 4 1 35.604 -29.4385 28.9596 
30 4 1 30.6481 -27.9797 28.7148 
31 5 1 58.9444 -34.3278 -1.13616 
32 5 3 58.773 -33.0358 -1.97765 
33 5 2 59.3059 -33.4256 -3.38137 
34 5 2 59.3737 -32.3548 -4.4501 
35 5 1 59.7026 -32.9008 -5.88782 
36 5 1 57.3423 -32.5226 -1.95472 
37 6 1 29.723 33.3686 -48.1589 
38 6 3 28.3579 34.0323 -47.8436 
39 6 2 28.1867 35.2209 -48.7302 
40 6 2 28.2144 34.8735 -50.2486 
41 6 1 27.6461 36.015 -51.1502 
42 6 1 28.1154 34.458 -46.3465 
43 7 1 17.7079 12.18 5.0808 
44 7 3 16.8016 10.9948 4.7348 
45 7 2 15.4773 11.4422 4.16162 
46 7 2 14.4473 12.0451 5.02004 
47 7 1 13.4478 12.8669 4.14761 
48 7 1 17.5243 10.0695 3.80372 
49 8 1 35.7319 50.9496 -16.3853 
50 8 3 36.0569 50.414 -14.9374 
51 8 2 37.2163 51.2021 -14.2184 
52 8 2 38.4139 51.1068 -15.0648 
53 8 1 39.1028 49.6702 -14.9537 
54 8 1 34.7897 50.3245 -13.9759 
55 9 1 -18.4389 -50.7455 48.3226 
56 9 3 -18.1965 -50.051 46.9639 
57 9 2 -16.7686 -50.3884 46.425 
58 9 2 -16.6304 -51.9255 45.9948 
59 9 1 -15.1575 -52.3928 45.869 
60 9 1 -18.6186 -48.5355 46.667 
ITEM: TIMESTEP
1252000
ITEM: NUMBER OF ATOMS
60
ITEM: BOX BOUNDS pp pp pp
-1.6760332695909492e+00 1.2292833269592530e+01
-1.6760332695909492e+00 1.2292833269592530e+01
-1.6760332695909492e+00 1.2292833269592530e+01
ITEM: ATOMS id mol type xu yu zu 
1 0 1 -37.5537 75.0293 15.4778 
2 0 3 -37.888 74.4648 16.8734 
3 0 2 -38.7776 75.3643 17.7429 
4 0 2 -40.1979 75.4995 17.2802 
5 0 1 -41.0762 76.2322 18.3259 
6 0 1 -38.6929 73.1756 16.7978 
7 1 1 -47.2763 -70.2356 48.5509 
8 1 3 -47.7165 -71.5439 49.3333 
9 1 2 -47.3622 -71.3115 50.7995 
10 1 2 -45.9603 -70.7991 51.0652 
11 1 1 -45.3833 -70.9783 52.4923 
12 1 1 -47.4899 -72.9814 48.8015 
13 2 1 -17.3986 16.9841 0.875896 
14 2 3 -17.9319 16.3967 -0.464118 
15 2 2 -17.7465 17.2244 -1.74298 
16 2 2 -18.7435 16.668 -2.73947 
17 2 1 -18.6198 17.064 -4.24782 
18 2 1 -17.2708 14.9716 -0.500455 
19 3 1 4.10851 43.2867 -21.8003 
20 3 3 3.36622 42.6316 -20.6835 
21 3 2 1.92464 43.1249 -20.6549 
22 3 2 1.08061 42.537 -19.4739 
23 3 1 -0.496064 42.6388 -19.5413 
24 3 1 3.55652 41.1303 -20.7293 
25 4 1 32.787 -26.2283 27.1346 
26 4 3 32.3391 -27.3075 26.2312 
27 4 2 32.3951 -28.6452 26.8861 
28 4 2 33.8294 -29.0052 27.4365 
29 4 1 33.719 -30.2928 28.3111 
30 4 1 31.0295 -26.97 25.5107 
31 5 1 57.7906 -33.6385 -0.913349 
32 5 3 58.1175 -32.3186 -1.69932 
33 5 2 58.0916 -32.6528 -3.17649 
34 5 2 58.8723 -31.5766 -3.98071 
35 5 1 59.172 -32.0427 -5.42102 
36 5 1 57.3209 -31.0731 -1.24752 
37 6 1 29.9552 32.3812 -45.71 
38 6 3 28.4714 32.3432 -46.1095 
39 6 2 27.975 33.8347 -46.2677 
40 6 2 26.4174 33.8021 -46.376 
41 6 1 25.8981 35.0893 -46.9602 
42 6 1 27.7214 31.5038 -45.0576 
43 7 1 18.6958 10.6263 4.85867 
44 7 3 18.2305 9.69568 3.82843 
45 7 2 17.1329 10.3165 2.92966 
46 7 2 16.19 11.4625 3.51481 
47 7 1 15.0146 11.6517 2.5003 
48 7 1 19.2822 8.79852 3.18569 
49 8 1 36.9734 49.2576 -15.7638 
50 8 3 36.7316 49.6478 -14.3666 
51 8 2 37.3303 50.9252 -13.8577 
52 8 2 38.8987 51.0009 -14.1488 
53 8 1 39.7155 49.9391 -13.4658 
54 8 1 35.2821 49.6217 -14.1011 
55 9 1 -18.9904 -47.9272 45.9201 
56 9 3 -17.6804 -48.6387 46.0997 
57 9 2 -17.8908 -49.5315 47.296 
58 9 2 -19.0215 -50.4895 46.9196 
59 9 1 -19.4927 -51.3912 48.062 
60 9 1 -16.6934 -47.4941 46.4269 
ITEM: TIMESTEP
1253000
ITEM: NUMBER OF ATOMS
60
ITEM: BOX BOUNDS pp pp pp
-1.6755885709319351e+00 1.2292388570933516e+01
-1.6755885709319351e+00 1.2292388570933516e+01
-1.6755885709319351e+00 1.2292388570933516e+01
ITEM: ATOMS id mol type xu yu zu 
1 0 1 -39.0228 74.6225 15.1565 
2 0 3 -40.4549 74.0944 14.9699 
3 0 2 -41.4742 74.3294 16.1477 
4 0 2 -42.4507 75.4517 15.7751 
5 0 1 -43.9077 75.1702 16.2884 
6 0 1 -41.2244 74.5069 13.7011 
7 1 1 -48.9574 -70.8534 49.2934 
8 1 3 -48.7409 -71.8453 50.5144 
9 1 2 -47.5032 -71.6296 51.4135 
10 1 2 -46.2403 -71.9936 50.6252 
11 1 1 -44.9518 -71.4157 51.2083 
12 1 1 -49.0349 -73.2451 50.0755 
13 2 1 -15.6199 15.869 1.04326 
14 2 3 -16.576 15.3988 -0.0531764 
15 2 2 -16.8068 16.6006 -0.907037 
16 2 2 -17.9046 16.524 -1.99857 
17 2 1 -18.1784 17.7639 -2.87882 
18 2 1 -16.0586 14.1786 -0.90657 
19 3 1 4.48242 45.7619 -22.7634 
20 3 3 3.53566 44.5726 -22.3543 
21 3 2 3.03625 43.7404 -23.5359 
22 3 2 1.70812 43.0203 -23.0615 
23 3 1 0.740426 42.5933 -24.2515 
24 3 1 4.35559 43.6291 -21.4123 
25 4 1 34.6646 -25.8311 30.6113 
26 4 3 34.9143 -26.2247 29.208 
27 4 2 35.3209 -27.7417 29.1537 
28 4 2 36.5771 -28.166 30.0175 
29 4 1 36.7535 -29.7226 29.9242 
30 4 1 33.7746 -25.9088 28.2901 
31 5 1 59.5497 -33.0962 -1.83828 
32 5 3 59.5532 -32.0714 -3.01875 
33 5 2 58.1046 -31.6471 -3.20357 
34 5 2 57.7148 -30.8404 -4.45694 
35 5 1 56.302 -30.3806 -4.23153 
36 5 1 60.3821 -30.8198 -2.73106 
37 6 1 30.6219 32.8701 -45.8566 
38 6 3 29.1447 32.5812 -46.3547 
39 6 2 29.0566 32.9143 -47.8541 
40 6 2 27.6621 32.5663 -48.3683 
41 6 1 27.2888 32.8413 -49.8295 
42 6 1 28.0598 33.3978 -45.6094 
43 7 1 17.086 8.17856 4.51359 
44 7 3 17.0717 8.56321 3.07679 
45 7 2 16.2314 9.72595 2.72463 
46 7 2 14.7276 9.73579 3.1691 
47 7 1 13.8495 9.26861 1.98904 
48 7 1 18.4394 8.74461 2.3315 
49 8 1 35.152 50.2395 -14.8092 
50 8 3 35.9326 48.9461 -14.4833 
51 8 2 36.9579 48.9692 -13.3352 
52 8 2 38.0433 49.9882 -13.4597 
53 8 1 38.8148 49.8993 -14.8513 
54 8 1 34.9319 47.6777 -14.6378 
55 9 1 -17.4387 -47.1316 48.9348 
56 9 3 -17.7714 -48.326 49.8362 
57 9 2 -19.2617 -48.5591 50.0031 
58 9 2 -20.2399 -49.108 48.9039 
59 9 1 -21.6715 -49.2113 49.4827 
60 9 1 -16.9888 -48.1324 51.1288 
ITEM: TIMESTEP
1254000
ITEM: NUMBER OF ATOMS
60
ITEM: BOX BOUNDS pp pp pp
-1.6751438722729211e+00 1.2291943872274501e+01
-1.6751438722729211e+00 1.2291943872274501e+01
-1.6751438722729211e+00 1.2291943872274501e+01
ITEM: ATOMS id mol type xu yu zu 
1 0 1 -40.1276 72.3434 12.3175 
2 0 3 -41.3683 72.2963 13.1001 
3 0 2 -41.3725 73.1895 14.3636 
4 0 2 -42.3376 72.7263 15.4541 
5 0 1 -42.6418 73.6758 16.6289 
6 0 1 -42.3738 72.7781 12.1067 
7 1 1 -49.7201 -71.4643 49.092 
8 1 3 -49.4231 -70.9221 50.5312 
9 1 2 -48.5347 -69.6509 50.636 
10 1 2 -47.24 -69.6864 49.7849 
11 1 1 -46.46 -68.4155 50.0895 
12 1 1 -49.1355 -72.0771 51.4433 
13 2 1 -16.3025 11.88 -2.79953 
14 2 3 -16.7634 12.6057 -1.57726 
15 2 2 -17.8457 13.6116 -2.0653 
16 2 2 -18.4019 14.4559 -0.884399 
17 2 1 -19.8038 15.0306 -1.05216 
18 2 1 -17.4045 11.6619 -0.514772 
19 3 1 3.89572 47.3286 -24.2066 
20 3 3 4.25981 46.002 -23.3831 
21 3 2 4.13483 44.6728 -24.1755 
22 3 2 4.20473 43.3677 -23.3579 
23 3 1 3.45659 42.2841 -24.1915 
24 3 1 5.60017 46.1382 -22.7202 
25 4 1 37.2908 -25.8716 31.2011 
26 4 3 37.1269 -27.3493 30.8806 
27 4 2 37.9726 -28.2359 31.7852 
28 4 2 39.4611 -28.0889 31.6187 
29 4 1 40.2884 -29.1851 32.3758 
30 4 1 35.6283 -27.7235 30.8672 
31 5 1 58.0573 -30.9011 -1.13093 
32 5 3 58.4676 -30.0192 -2.32829 
33 5 2 57.4497 -29.8814 -3.5161 
34 5 2 57.8466 -28.8337 -4.5763 
35 5 1 56.6094 -28.4668 -5.48935 
36 5 1 58.9367 -28.6543 -1.87078 
37 6 1 28.6743 35.7981 -47.764 
38 6 3 29.3791 34.4355 -47.6841 
39 6 2 28.3919 33.4523 -48.2596 
40 6 2 28.87 32.023 -48.3004 
41 6 1 27.9182 30.9213 -48.9286 
42 6 1 29.7751 34.1116 -46.2413 
43 7 1 16.4773 8.96837 3.47205 
44 7 3 15.6848 9.63256 2.40156 
45 7 2 14.1924 9.169 2.36171 
46 7 2 14.1583 7.71271 1.83737 
47 7 1 14.3227 7.46136 0.325789 
48 7 1 15.7476 11.0975 2.88128 
49 8 1 35.1882 50.8133 -15.065 
50 8 3 34.8072 50.0266 -13.814 
51 8 2 35.6642 50.3445 -12.5383 
52 8 2 37.1425 49.7991 -12.8227 
53 8 1 37.3202 48.3761 -12.5827 
54 8 1 33.3899 50.279 -13.3324 
55 9 1 -18.3963 -48.9993 49.0957 
56 9 3 -17.8055 -48.152 50.2685 
57 9 2 -18.1932 -48.7065 51.6788 
58 9 2 -17.7189 -50.1638 51.9292 
59 9 1 -18.5043 -51.0729 53.0158 
60 9 1 -17.8474 -46.7028 49.9053 
ITEM: TIMESTEP
1255000
ITEM: NUMBER OF ATOMS
60
ITEM: BOX BOUNDS pp pp pp
-1.6746991736139072e+00 1.2291499173615488e+01
-1.6746991736139072e+00 1.2291499173615488e+01
-1.6746991736139072e+00 1.2291499173615488e+01
ITEM: ATOMS id mol type xu yu zu 
1 0 1 -41.1019 70.2566 12.8035 
2 0 3 -40.4829 70.7414 14.0527 
3 0 2 -41.145 71.8148 14.8328 
4 0 2 -40.1532 72.5874 15.6542 
5 0 1 -40.602 73.7448 16.5557 
6 0 1 -40.0417 69.5819 14.9466 
7 1 1 -50.0353 -72.2019 49.2632 
8 1 3 -49.8726 -71.9128 50.7922 
9 1 2 -49.3637 -70.4726 50.9592 
10 1 2 -47.9032 -70.4623 50.6322 
11 1 1 -47.1263 -69.141 50.6668 
12 1 1 -49.082 -72.9006 51.6254 
13 2 1 -17.727 11.7206 -1.58053 
14 2 3 -16.8544 12.9325 -1.26047 
15 2 2 -17.4731 14.2378 -1.73455 
16 2 2 -16.5333 15.4236 -1.76337 
17 2 1 -17.3492 16.7471 -1.86995 
18 2 1 -16.4009 12.8837 0.239628 
19 3 1 5.97826 46.6826 -25.9771 
20 3 3 5.29778 46.2966 -24.6329 
21 3 2 5.32656 44.7412 -24.3409 
22 3 2 4.33636 44.2689 -23.2118 
23 3 1 4.07865 42.8318 -23.3905 
24 3 1 5.82644 47.0284 -23.4351 
25 4 1 38.1637 -25.973 32.9326 
26 4 3 38.5723 -26.7043 31.6598 
27 4 2 39.5151 -27.8664 31.8585 
28 4 2 40.9637 -27.5401 32.1648 
29 4 1 41.9008 -28.6976 32.453 
30 4 1 37.3147 -27.1642 30.7645 
31 5 1 56.0583 -31.5477 -2.17129 
32 5 3 57.2287 -31.1593 -3.08726 
33 5 2 56.941 -29.8504 -3.89236 
34 5 2 56.0497 -29.9803 -5.13283 
35 5 1 55.2699 -28.6924 -5.36144 
36 5 1 58.4247 -30.9446 -2.18573 
37 6 1 28.3164 35.5263 -47.6432 
38 6 3 28.2628 34.5905 -48.7913 
39 6 2 29.1638 33.4187 -48.4137 
40 6 2 28.5341 32.224 -49.1182 
41 6 1 29.4691 30.9617 -49.2122 
42 6 1 28.5908 35.2077 -50.1214 
43 7 1 13.5095 9.72541 2.78399 
44 7 3 13.4345 8.56136 1.78583 
45 7 2 14.3765 7.34851 2.06956 
46 7 2 15.8147 7.61892 1.83978 
47 7 1 16.3041 7.80177 0.428038 
48 7 1 11.9447 8.09554 1.86058 
49 8 1 33.9946 55.2781 -12.4884 
50 8 3 33.4957 53.9331 -12.1053 
51 8 2 34.6378 53.1757 -11.4571 
52 8 2 35.7106 52.683 -12.3058 
53 8 1 35.1231 51.5978 -13.2846 
54 8 1 32.3361 53.7031 -11.103 
55 9 1 -17.2164 -51.7462 50.2885 
56 9 3 -17.5214 -50.3133 49.662 
57 9 2 -18.966 -49.9054 49.8163 
58 9 2 -19.4235 -49.189 51.1501 
59 9 1 -19.0163 -49.9511 52.4287 
60 9 1 -17.0099 -50.4204 48.2423 
ITEM: TIMESTEP
1256000
ITEM: NUMBER OF ATOMS
60
ITEM: BOX BOUNDS pp pp pp
-1.6742544749548931e+00 1.2291054474956473e+01
-1.6742544749548931e+00 1.2291054474956473e+01
-1.6742544749548931e+00 1.2291054474956473e+01
ITEM: ATOMS id mol type xu yu zu 
1 0 1 -37.5371 72.4636 12.6159 
2 0 3 -38.9494 72.0878 12.9147 
3 0 2 -39.8408 73.2764 13.1741 
4 0 2 -41.3312 73.1126 13.403 
5 0 1 -42.1572 74.4332 13.4663 
6 0 1 -39.6242 71.1915 11.8416 
7 1 1 -47.8215 -72.3795 48.8033 
8 1 3 -49.305 -72.3452 49.1824 
9 1 2 -49.8666 -71.0789 49.7969 
10 1 2 -49.6939 -71.076 51.305 
11 1 1 -50.4852 -69.9157 51.8814 
12 1 1 -49.7015 -73.6547 49.8822 
13 2 1 -18.239 12.1148 -2.97596 
14 2 3 -17.6697 13.4624 -2.41289 
15 2 2 -18.4567 14.3453 -1.46133 
16 2 2 -17.8954 15.7497 -1.17859 
17 2 1 -18.6871 16.7266 -0.249035 
18 2 1 -16.2282 13.3272 -1.8247 
19 3 1 4.32067 47.6725 -26.5406 
20 3 3 5.4099 47.0327 -25.6097 
21 3 2 5.0982 45.7534 -24.8884 
22 3 2 6.12686 45.6671 -23.7911 
23 3 1 5.94205 44.5128 -22.7942 
24 3 1 6.75132 46.8979 -26.4146 
25 4 1 39.2146 -29.3114 32.2503 
26 4 3 39.4132 -28.1523 31.3751 
27 4 2 40.9061 -28.0151 30.8006 
28 4 2 41.9265 -27.683 31.91 
29 4 1 43.3752 -27.4389 31.4837 
30 4 1 38.43 -28.2452 30.1844 
31 5 1 58.0935 -32.2073 -4.26004 
32 5 3 56.9937 -31.5557 -3.38541 
33 5 2 56.0008 -30.7385 -4.20267 
34 5 2 56.7467 -29.8505 -5.21174 
35 5 1 55.9766 -28.9665 -6.13189 
36 5 1 56.458 -32.5404 -2.33383 
37 6 1 30.8437 32.6923 -46.2906 
38 6 3 29.5022 32.9845 -46.9352 
39 6 2 28.661 31.7075 -46.896 
40 6 2 27.1223 31.7185 -46.7014 
41 6 1 26.5219 30.3366 -46.4846 
42 6 1 29.5743 33.7812 -48.2533 
43 7 1 14.0368 7.3211 3.21595 
44 7 3 14.2372 8.85234 3.33179 
45 7 2 15.6396 9.19626 3.81383 
46 7 2 15.8859 8.70881 5.22804 
47 7 1 17.3702 8.96023 5.58333 
48 7 1 13.6525 9.68275 2.08356 
49 8 1 32.8843 54.7096 -13.6224 
50 8 3 33.8001 54.5231 -12.4088 
51 8 2 35.2816 54.4045 -12.8919 
52 8 2 35.4587 53.1216 -13.8555 
53 8 1 35.2194 51.6551 -13.3163 
54 8 1 33.6438 55.7475 -11.3831 
55 9 1 -19.2107 -52.1019 50.4294 
56 9 3 -19.4531 -51.2019 51.6809 
57 9 2 -20.894 -50.6549 51.4341 
58 9 2 -21.3902 -49.5313 52.3828 
59 9 1 -21.8676 -49.8228 53.7779 
60 9 1 -18.3558 -50.1378 51.7377 
ITEM: TIMESTEP
1257000
ITEM: NUMBER OF ATOMS
60
ITEM: BOX BOUNDS pp pp pp
-1.6738097762958790e+00 1.2290609776297460e+01
-1.6738097762958790e+00 1.2290609776297460e+01
-1.6738097762958790e+00 1.2290609776297460e+01
ITEM: ATOMS id mol type xu yu zu 
1 0 1 -38.5599 73.0904 12.7719 
2 0 3 -39.7415 72.6846 13.5533 
3 0 2 -40.7983 73.7433 13.5697 
4 0 2 -41.9623 73.4774 14.5916 
5 0 1 -42.7681 74.7508 14.9298 
6 0 1 -40.2346 71.3087 13.0011 
7 1 1 -45.2143 -70.8045 50.1415 
8 1 3 -46.1708 -71.3349 49.1058 
9 1 2 -47.6229 -71.4662 49.5974 
10 1 2 -47.7716 -72.3792 50.8774 
11 1 1 -49.2822 -72.8197 51.0231 
12 1 1 -45.6745 -72.809 48.8282 
13 2 1 -15.5344 12.8357 -1.59507 
14 2 3 -16.5605 13.8458 -2.08055 
15 2 2 -17.9287 13.9422 -1.28465 
16 2 2 -18.8848 15.0837 -1.73201 
17 2 1 -20.023 14.9094 -0.725576 
18 2 1 -15.8093 15.1896 -2.07379 
19 3 1 4.24771 47.9577 -25.241 
20 3 3 5.31533 47.3943 -24.2925 
21 3 2 4.72213 46.1257 -23.6366 
22 3 2 5.56421 45.4512 -22.6267 
23 3 1 4.84873 44.2377 -22.0363 
24 3 1 6.54852 46.9004 -25.0808 
25 4 1 40.3314 -28.085 32.6121 
26 4 3 40.584 -27.5886 31.2506 
27 4 2 41.9795 -28.0246 30.8555 
28 4 2 43.0995 -27.5006 31.8428 
29 4 1 44.5632 -27.5136 31.3725 
30 4 1 39.3459 -28.116 30.3727 
31 5 1 57.765 -32.2285 -4.64709 
32 5 3 56.5321 -31.4672 -5.19092 
33 5 2 56.8754 -30.1197 -5.81119 
34 5 2 57.6109 -29.0242 -5.01339 
35 5 1 57.9309 -27.758 -5.904 
36 5 1 55.7183 -32.2661 -6.21383 
37 6 1 28.5645 31.6912 -49.2907 
38 6 3 27.0619 31.4613 -49.2068 
39 6 2 26.2505 32.676 -48.7481 
40 6 2 24.6741 32.4996 -48.5493 
41 6 1 23.6999 33.6824 -48.2616 
42 6 1 26.7572 30.1463 -48.4594 
43 7 1 15.5256 9.92733 3.13446 
44 7 3 15.0857 8.56813 3.58093 
45 7 2 15.7804 8.3454 4.94315 
46 7 2 17.0798 9.17284 5.09518 
47 7 1 18.255 8.41333 5.75463 
48 7 1 13.6102 8.35285 3.6869 
49 8 1 33.1371 51.5315 -12.4784 
50 8 3 33.3512 52.9393 -12.9132 
51 8 2 34.606 53.2167 -13.7034 
52 8 2 35.9304 52.5886 -13.1959 
53 8 1 36.5473 52.9838 -11.889 
54 8 1 32.1625 53.9375 -13.0366 
55 9 1 -20.8304 -52.4422 51.5748 
56 9 3 -21.3551 -51.313 52.5158 
57 9 2 -21.0071 -49.872 51.9745 
58 9 2 -21.8025 -48.6996 52.4558 
59 9 1 -23.2943 -48.6296 51.9738 
60 9 1 -20.8953 -51.4658 53.96 
ITEM: TIMESTEP
1258000
ITEM: NUMBER OF ATOMS
60
ITEM: BOX BOUNDS pp pp pp
-1.6733650776368652e+00 1.2290165077638445e+01
-1.6733650776368652e+00 1.2290165077638445e+01
-1.6733650776368652e+00 1.2290165077638445e+01
ITEM: ATOMS id mol type xu yu zu 
1 0 1 -41.3819 72.0208 12.89 
2 0 3 -40.4027 72.1468 13.9655 
3 0 2 -41.1752 72.3204 15.3354 
4 0 2 -40.3702 72.862 16.5015 
5 0 1 -41.305 73.0354 17.7416 
6 0 1 -39.3087 71.0933 14.0748 
7 1 1 -49.1956 -73.4038 51.5056 
8 1 3 -49.1424 -72.9024 50.0724 
9 1 2 -49.3946 -71.4013 50.0659 
10 1 2 -50.7048 -70.8337 50.6158 
11 1 1 -51.0264 -69.3326 50.6485 
12 1 1 -50.3506 -73.6222 49.3353 
13 2 1 -17.2592 12.1632 -2.28984 
14 2 3 -17.674 13.673 -2.52317 
15 2 2 -17.2826 14.7536 -1.52144 
16 2 2 -17.7944 16.2309 -1.7781 
17 2 1 -17.3475 17.1385 -0.642332 
18 2 1 -17.5455 14.2514 -3.96582 
19 3 1 7.32369 44.8892 -24.896 
20 3 3 6.44455 45.764 -24.0222 
21 3 2 5.25873 45.0556 -23.3968 
22 3 2 4.18628 46.0597 -22.8217 
23 3 1 3.18556 45.1898 -22.0039 
24 3 1 7.30196 46.3166 -22.8465 
25 4 1 41.8415 -29.4713 31.2988 
26 4 3 42.5485 -29.1765 32.622 
27 4 2 44.0037 -28.7155 32.4175 
28 4 2 44.8008 -29.7197 31.632 
29 4 1 46.2609 -29.2732 31.176 
30 4 1 41.7485 -27.9993 33.2775 
31 5 1 56.413 -31.588 -3.24038 
32 5 3 56.9502 -31.2934 -4.65096 
33 5 2 57.3553 -29.8825 -4.93876 
34 5 2 56.1213 -29.0355 -4.73317 
35 5 1 56.3516 -27.5026 -4.89641 
36 5 1 57.8424 -32.3902 -5.234 
37 6 1 27.9654 33.9703 -48.2263 
38 6 3 26.5422 34.029 -48.7586 
39 6 2 26.1764 35.3218 -49.5063 
40 6 2 24.6247 35.3395 -49.6606 
41 6 1 24.0485 36.6376 -50.1731 
42 6 1 25.5205 33.5843 -47.694 
43 7 1 16.4085 8.18956 0.586694 
44 7 3 15.3061 8.29472 1.71281 
45 7 2 15.4958 7.4935 3.01057 
46 7 2 16.2493 8.43607 3.85722 
47 7 1 17.085 7.73092 4.95509 
48 7 1 13.8835 8.75179 1.20573 
49 8 1 34.3698 52.1085 -13.7839 
50 8 3 35.8265 51.9507 -13.4442 
51 8 2 36.3395 51.9636 -11.9881 
52 8 2 35.9349 53.2661 -11.3117 
53 8 1 36.7995 54.53 -11.6979 
54 8 1 36.6109 50.9718 -14.3455 
55 9 1 -20.2772 -51.5764 50.6051 
56 9 3 -21.0944 -50.4563 51.1999 
57 9 2 -22.2544 -50.0269 50.2689 
58 9 2 -23.078 -48.7523 50.7638 
59 9 1 -23.6203 -48.8722 52.1967 
60 9 1 -20.171 -49.2919 51.5468 
ITEM: TIMESTEP
1259000
ITEM: NUMBER OF ATOMS
60
ITEM: BOX BOUNDS pp pp pp
-1.6729203789778511e+00 1.2289720378979432e+01
-1.6729203789778511e+00 1.2289720378979432e+01
-1.6729203789778511e+00 1.2289720378979432e+01
ITEM: ATOMS id mol type xu yu zu 
1 0 1 -40.4953 71.2 11.6321 
2 0 3 -40.3638 71.8478 13.0085 
3 0 2 -41.6123 71.4611 13.6847 
4 0 2 -41.9864 72.1938 14.9961 
5 0 1 -43.3956 71.9504 15.488 
6 0 1 -39.0383 71.3845 13.6421 
7 1 1 -48.9981 -71.5484 52.433 
8 1 3 -49.2417 -70.8901 51.0488 
9 1 2 -49.9004 -69.4545 51.0465 
10 1 2 -51.4034 -69.5283 51.3706 
11 1 1 -51.9114 -68.0908 51.1421 
12 1 1 -49.9451 -71.7563 49.926 
13 2 1 -18.028 13.9436 -2.31663 
14 2 3 -17.9664 15.4814 -2.47081 
15 2 2 -17.5645 16.3058 -1.22461 
16 2 2 -17.9057 17.7538 -1.37791 
17 2 1 -17.4536 18.5498 -0.119501 
18 2 1 -17.2601 16.0683 -3.68038 
19 3 1 9.47679 42.2944 -21.8903 
20 3 3 8.12442 42.4632 -22.5443 
21 3 2 7.7566 43.9463 -22.6683 
22 3 2 6.44177 44.421 -23.4326 
23 3 1 6.62275 45.9773 -23.7575 
24 3 1 8.09497 41.7359 -23.9423 
25 4 1 43.3493 -30.503 30.6189 
26 4 3 42.5125 -29.3856 31.0123 
27 4 2 43.5228 -28.3132 31.482 
28 4 2 44.7778 -29.0168 32.1035 
29 4 1 45.7262 -28.1518 32.9573 
30 4 1 41.3825 -29.7873 31.9263 
31 5 1 57.44 -31.8474 -7.65441 
32 5 3 58.2861 -31.2771 -6.52712 
33 5 2 57.3406 -30.6241 -5.47903 
34 5 2 56.4255 -29.5135 -6.02915 
35 5 1 55.432 -29.0591 -4.98915 
36 5 1 59.1571 -32.3104 -5.81893 
37 6 1 24.2045 35.0368 -46.0406 
38 6 3 24.1429 36.5481 -46.2377 
39 6 2 23.9155 37.0153 -47.6801 
40 6 2 24.3341 38.3886 -48.0139 
41 6 1 24.1115 38.7925 -49.4729 
42 6 1 25.4027 37.055 -45.5292 
43 7 1 15.6853 8.63976 0.30158 
44 7 3 14.2405 8.29619 0.106825 
45 7 2 13.7531 7.7736 1.45989 
46 7 2 14.5663 6.50582 1.77443 
47 7 1 14.0431 5.92386 3.13066 
48 7 1 14.0855 7.46865 -1.17211 
49 8 1 37.0537 50.1518 -13.7551 
50 8 3 37.8685 50.7632 -12.636 
51 8 2 37.0555 52.0029 -12.0386 
52 8 2 36.9299 53.1404 -13.0045 
53 8 1 38.2513 53.8403 -13.0827 
54 8 1 37.9832 49.7273 -11.5056 
55 9 1 -21.1791 -50.2901 50.6457 
56 9 3 -22.1097 -50.3161 51.9183 
57 9 2 -21.8403 -51.5141 52.8359 
58 9 2 -22.5425 -51.2578 54.1336 
59 9 1 -21.8703 -50.136 54.9723 
60 9 1 -23.6529 -50.195 51.5286 
ITEM: TIMESTEP
1260000
ITEM: NUMBER OF ATOMS
60
ITEM: BOX BOUNDS pp pp pp
-1.6724756803188370e+00 1.2289275680320417e+01
-1.6724756803188370e+00 1.2289275680320417e+01
-1.6724756803188370e+00 1.2289275680320417e+01
ITEM: ATOMS id mol type xu yu zu 
1 0 1 -42.3338 69.2168 12.9411 
2 0 3 -41.8682 70.5749 13.5719 
3 0 2 -40.5044 70.3987 14.361 
4 0 2 -40.1745 71.5333 15.2883 
5 0 1 -38.9152 71.365 16.2342 
6 0 1 -41.8521 71.8076 12.6463 
7 1 1 -51.7073 -69.9781 53.473 
8 1 3 -50.3773 -70.1368 52.859 
9 1 2 -49.8439 -68.8951 52.0766 
10 1 2 -50.691 -68.6711 50.861 
11 1 1 -49.9782 -67.8817 49.8523 
12 1 1 -50.1405 -71.4424 52.082 
13 2 1 -18.1863 15.3939 -4.71849 
14 2 3 -18.4826 16.7757 -4.11304 
15 2 2 -17.835 16.7895 -2.73669 
16 2 2 -18.2142 18.1823 -2.15144 
17 2 1 -17.8843 18.2989 -0.654975 
18 2 1 -17.794 17.8314 -5.019 
19 3 1 12.0837 44.3756 -24.7314 
20 3 3 11.1444 44.7725 -23.5862 
21 3 2 9.77358 45.3836 -23.9167 
22 3 2 9.02633 46.0538 -22.767 
23 3 1 7.51306 46.2218 -22.9092 
24 3 1 10.9931 43.7356 -22.4545 
25 4 1 44.3134 -31.474 28.7893 
26 4 3 44.3407 -30.4972 30.0494 
27 4 2 45.6226 -30.0788 30.831 
28 4 2 46.73 -29.8389 29.8237 
29 4 1 47.9672 -29.1206 30.4115 
30 4 1 42.883 -30.4483 30.7324 
31 5 1 57.9516 -32.2726 -5.758 
32 5 3 58.1256 -31.0547 -4.84888 
33 5 2 57.5144 -29.8013 -5.56004 
34 5 2 58.3852 -29.2932 -6.77328 
35 5 1 58.0128 -27.8683 -7.31875 
36 5 1 57.428 -31.2634 -3.512 
37 6 1 22.0063 34.7707 -45.1775 
38 6 3 22.195 35.2097 -46.6204 
39 6 2 22.8392 36.6162 -46.7624 
40 6 2 23.8066 36.7908 -47.9692 
41 6 1 24.2534 38.2618 -48.2435 
42 6 1 21.0096 34.9592 -47.5337 
43 7 1 12.314 8.91804 -1.89755 
44 7 3 12.578 7.39107 -1.93144 
45 7 2 12.8296 7.03019 -0.43322 
46 7 2 13.6957 8.00299 0.375106 
47 7 1 13.5849 7.96589 1.92741 
48 7 1 13.8283 7.14442 -2.8296 
49 8 1 35.976 50.3833 -12.7793 
50 8 3 37.0332 50.5074 -11.689 
51 8 2 36.7981 51.6014 -10.6551 
52 8 2 36.9336 53.0248 -11.286 
53 8 1 38.3496 53.2374 -11.9139 
54 8 1 37.3797 49.0624 -11.1138 
55 9 1 -23.8605 -49.4533 54.2307 
56 9 3 -23.7485 -50.9037 54.6256 
57 9 2 -22.3858 -51.5254 54.3664 
58 9 2 -21.9739 -52.6435 55.4048 
59 9 1 -21.6476 -52.193 56.7928 
60 9 1 -24.911 -51.7576 54.1056 
ITEM: TIMESTEP
1261000
ITEM: NUMBER OF ATOMS
60
ITEM: BOX BOUNDS pp pp pp
-1.6720309816598231e+00 1.2288830981661404e+01
-1.6720309816598231e+00 1.2288830981661404e+01
-1.6720309816598231e+00 1.2288830981661404e+01
ITEM: ATOMS id mol type xu yu zu 
1 0 1 -41.4298 67.5656 13.2578 
2 0 3 -41.2316 68.5975 14.3994 
3 0 2 -41.6228 69.9428 13.7852 
4 0 2 -41.425 71.106 14.8451 
5 0 1 -41.5389 72.5285 14.2043 
6 0 1 -42.0228 68.1459 15.6146 
7 1 1 -51.4701 -70.392 55.7056 
8 1 3 -50.0115 -70.1365 55.4302 
9 1 2 -49.7433 -68.8593 54.4986 
10 1 2 -49.9797 -69.1059 52.9526 
11 1 1 -49.6758 -67.8306 52.0979 
12 1 1 -49.1952 -71.3451 54.9294 
13 2 1 -15.8277 16.5746 -3.77637 
14 2 3 -17.1955 16.314 -3.1484 
15 2 2 -16.9128 16.5066 -1.65929 
16 2 2 -18.0655 16.1894 -0.779232 
17 2 1 -17.7554 16.2361 0.744546 
18 2 1 -18.2213 17.4101 -3.38262 
19 3 1 12.8012 44.0294 -23.3347 
20 3 3 11.4068 43.845 -22.6865 
21 3 2 10.615 45.2057 -22.6357 
22 3 2 9.23002 44.9976 -22.059 
23 3 1 8.42741 46.2781 -22.1953 
24 3 1 10.6138 42.8363 -23.5567 
25 4 1 47.0056 -31.9724 32.5062 
26 4 3 47.6104 -32.512 31.2343 
27 4 2 48.4855 -31.308 30.6687 
28 4 2 49.8366 -30.845 31.2842 
29 4 1 50.2958 -29.5416 30.6419 
30 4 1 46.4792 -32.6402 30.2376 
31 5 1 55.1163 -29.7014 -7.9831 
32 5 3 56.3077 -29.6301 -6.97487 
33 5 2 57.0947 -28.3437 -7.01835 
34 5 2 57.779 -28.1256 -8.40153 
35 5 1 58.6421 -26.7989 -8.3625 
36 5 1 55.745 -29.8903 -5.53689 
37 6 1 20.9296 37.4208 -46.6807 
38 6 3 19.9277 38.4507 -47.161 
39 6 2 20.6044 39.7069 -47.7166 
40 6 2 21.9688 39.6416 -48.5247 
41 6 1 22.4106 41.0847 -48.8191 
42 6 1 18.9251 38.88 -46.0893 
43 7 1 10.857 9.29284 -4.17547 
44 7 3 10.6945 7.77702 -4.34727 
45 7 2 10.8711 7.12142 -2.96939 
46 7 2 12.321 6.69197 -2.73838 
47 7 1 12.6676 6.00251 -1.3533 
48 7 1 11.5038 7.13797 -5.54284 
49 8 1 37.4539 50.4515 -12.9497 
50 8 3 37.6224 49.2832 -11.9771 
51 8 2 38.3597 49.6629 -10.6625 
52 8 2 39.791 50.3748 -10.8987 
53 8 1 40.9257 49.6643 -11.637 
54 8 1 36.3419 48.3413 -11.8225 
55 9 1 -24.9884 -48.7494 53.2551 
56 9 3 -24.3206 -50.0242 53.8529 
57 9 2 -23.1828 -49.6041 54.8587 
58 9 2 -22.5524 -50.7277 55.6481 
59 9 1 -23.6614 -51.392 56.5701 
60 9 1 -23.6698 -50.8414 52.7262 
ITEM: TIMESTEP
1262000
ITEM: NUMBER OF ATOMS
60
ITEM: BOX BOUNDS pp pp pp
-1.6715862830008090e+00 1.2288386283002389e+01
-1.6715862830008090e+00 1.2288386283002389e+01
-1.6715862830008090e+00 1.2288386283002389e+01
ITEM: ATOMS id mol type xu yu zu 
1 0 1 -40.0996 66.4542 13.8804 
2 0 3 -41.2164 67.5141 13.8764 
3 0 2 -40.7787 68.6132 12.9257 
4 0 2 -41.4711 70.0078 13.0507 
5 0 1 -41.1101 71.0483 11.9183 
6 0 1 -42.6059 66.9677 13.6034 
7 1 1 -49.0592 -72.075 56.6092 
8 1 3 -48.0965 -71.264 55.7121 
9 1 2 -48.6765 -69.9208 55.1881 
10 1 2 -49.8844 -70.1485 54.4165 
11 1 1 -50.5478 -68.821 53.8506 
12 1 1 -47.6469 -72.1843 54.5916 
13 2 1 -18.2332 17.9057 -1.23105 
14 2 3 -17.212 16.8691 -0.808904 
15 2 2 -17.6993 16.2901 0.484448 
16 2 2 -16.8089 15.1795 0.966045 
17 2 1 -17.3872 14.6556 2.26189 
18 2 1 -17.1755 15.8471 -1.94614 
19 3 1 9.8876 45.3192 -22.2792 
20 3 3 9.16966 44.9925 -20.9364 
21 3 2 8.16964 46.1551 -20.6856 
22 3 2 7.52582 46.1356 -19.2417 
23 3 1 6.60738 47.3618 -18.9925 
24 3 1 8.27361 43.7745 -21.2265 
25 4 1 47.0791 -34.2372 33.7477 
26 4 3 47.0875 -32.9342 32.9713 
27 4 2 48.2033 -31.9358 33.2029 
28 4 2 49.5091 -32.7862 33.326 
29 4 1 50.7706 -31.7944 33.3276 
30 4 1 45.789 -32.2347 32.9799 
31 5 1 55.5169 -29.7189 -10.4807 
32 5 3 56.4552 -28.8354 -9.61044 
33 5 2 57.4652 -27.9773 -10.435 
34 5 2 58.5168 -28.8421 -11.1378 
35 5 1 59.5223 -28.0699 -11.9908 
36 5 1 55.7295 -27.9933 -8.51557 
37 6 1 19.1209 40.3498 -47.1584 
38 6 3 17.7248 40.5174 -47.7419 
39 6 2 17.4401 41.9776 -47.9881 
40 6 2 18.3342 42.5522 -49.1386 
41 6 1 17.8729 43.9737 -49.5687 
42 6 1 16.7815 39.7982 -46.8103 
43 7 1 14.5204 8.76855 -7.09379 
44 7 3 14.6514 7.51162 -6.23394 
45 7 2 13.2605 7.26007 -5.62824 
46 7 2 12.4487 8.56763 -5.39084 
47 7 1 11.1333 8.33175 -4.66716 
48 7 1 15.8416 7.56439 -5.2305 
49 8 1 38.748 50.2502 -12.392 
50 8 3 39.2358 48.81 -12.3616 
51 8 2 40.6994 48.4568 -12.1721 
52 8 2 41.6528 48.8074 -13.3049 
53 8 1 41.2513 48.3048 -14.7116 
54 8 1 38.1006 47.8362 -11.8324 
55 9 1 -23.9457 -47.48 54.7442 
56 9 3 -23.8621 -48.9875 54.8851 
57 9 2 -22.8541 -49.5035 55.9599 
58 9 2 -23.1643 -50.9375 56.398 
59 9 1 -24.5249 -51.1895 56.9158 
60 9 1 -23.7558 -49.7317 53.5788 
ITEM: TIMESTEP
1263000
ITEM: NUMBER OF ATOMS
60
ITEM: BOX BOUNDS pp pp pp
-1.6711415843417949e+00 1.2287941584343375e+01
-1.6711415843417949e+00 1.2287941584343375e+01
-1.6711415843417949e+00 1.2287941584343375e+01
ITEM: ATOMS id mol type xu yu zu 
1 0 1 -42.9012 66.5703 12.1195 
2 0 3 -42.731 68.0578 12.5096 
3 0 2 -42.9926 69.014 11.3893 
4 0 2 -42.3356 70.3025 11.6555 
5 0 1 -42.5119 71.4331 10.6263 
6 0 1 -43.3876 68.4747 13.7937 
7 1 1 -48.5876 -74.9992 54.8554 
8 1 3 -48.83 -74.2693 56.2162 
9 1 2 -48.8997 -72.732 55.9982 
10 1 2 -47.7581 -71.8911 55.6336 
11 1 1 -48.1852 -70.4536 55.3582 
12 1 1 -47.8265 -74.6694 57.3171 
13 2 1 -20.5674 17.1362 -2.02291 
14 2 3 -19.564 17.9999 -1.27118 
15 2 2 -18.2719 17.1687 -1.05641 
16 2 2 -17.3915 17.7644 0.0922044 
17 2 1 -16.4645 16.7224 0.729497 
18 2 1 -19.1135 19.3557 -1.77073 
19 3 1 7.03472 46.0561 -25.1581 
20 3 3 7.73414 45.5459 -23.8255 
21 3 2 7.02932 46.0983 -22.5555 
22 3 2 7.72221 45.3684 -21.3795 
23 3 1 7.40701 46.1442 -20.0763 
24 3 1 7.59759 44.015 -23.7709 
25 4 1 48.1251 -31.109 33.5942 
26 4 3 47.98 -32.6564 33.5539 