LAMMPS (21 Jul 2020)
Reading data file ...
  orthogonal box = (0.0000000 0.0000000 0.0000000) to (10.616800 10.616800 10.616800)
  4 by 4 by 7 MPI processor grid
  reading atoms ...
  60 atoms
  scanning bonds ...
  2 = max bonds/atom
  scanning angles ...
  3 = max angles/atom
  scanning dihedrals ...
  2 = max dihedrals/atom
  reading bonds ...
  50 bonds
  reading angles ...
  50 angles
  reading dihedrals ...
  30 dihedrals
Finding 1-2 1-3 1-4 neighbors ...
  special bond factors lj:    0.0      0.0      0.0     
  special bond factors coul:  0.0      0.0      0.0     
     3 = max # of 1-2 neighbors
     3 = max # of 1-3 neighbors
     3 = max # of 1-4 neighbors
     5 = max # of special neighbors
  special bonds CPU = 0.011 seconds
  read_data CPU = 0.074 seconds
Neighbor list info ...
  update every 1 steps, delay 0 steps, check yes
  max neighbors/atom: 50000, page size: 500000
  master list distance cutoff = 16
  ghost atom cutoff = 16
  binsize = 8, bins = 2 2 2
  1 neighbor lists, perpetual/occasional/extra = 1 0 0
  (1) pair lj/cut/coul/cut, perpetual
      attributes: half, newton on
      pair build: half/bin/newton
      stencil: half/bin/3d/newton
      bin: standard
WARNING: Proc sub-domain size < neighbor skin, could lead to lost atoms (../domain.cpp:964)
Setting up cg style minimization ...
  Unit style    : real
  Current step  : 0
Per MPI rank memory allocation (min/avg/max) = 11.13 | 12.3 | 13.6 Mbytes
Step Temp Press Density Pxx Pyy Pzz Pxy Pxz Pyz PotEng KinEng TotEng E_vdwl E_coul E_pair E_bond E_angle E_dihed E_impro E_mol E_tail Enthalpy Volume 
       0       373.15    81610.176    1.1957605     80752.34    81705.144    82373.043    -7217.481    1957.5969    510.55463    78.497172    65.625067    144.12224    54.090414            0    54.090414    8.2510805    8.1978887    7.9577886            0    24.406758   -3.7954666     1568.421    1196.6879 
      10       373.15    77414.241    1.1957605    77520.585    76144.572    78577.566   -8154.1236     3186.613    1027.2516    70.793204    65.625067    136.41827    43.788151            0    43.788151    7.5355014    9.2847584    10.184794            0    27.005054   -3.7954666    1487.4877    1196.6879 
      20       373.15    75382.303    1.1957605    74926.033    74397.012    76823.865   -6170.1488    3845.7973    1251.7115    67.351848    65.625067    132.97691    41.453486            0    41.453486    6.5832734     8.453866    10.861223            0    25.898362   -3.7954666     1448.584    1196.6879 
      30       373.15    74102.821    1.1957605    73004.927    74670.647     74632.89   -3955.0378    3836.6577    306.77255    63.395323    65.625067    129.02039    35.673093            0    35.673093    6.5925587    8.2460778    12.883594            0     27.72223   -3.7954666    1422.2973    1196.6879 
      40       373.15    73545.363    1.1957605    73112.622    73860.819    73662.648   -3988.3598    3129.5046    319.60957    61.835362    65.625067    127.46043    33.710355            0    33.710355    6.5179851    7.7521369    13.854885            0    28.125007   -3.7954666    1411.0084    1196.6879 
      50       373.15    72686.908    1.1957605     73374.14    73396.277    71290.307   -4089.5444    2775.9622    1234.1534    60.639272    65.625067    126.26434    33.486721            0    33.486721    5.9659285    7.4696839    13.716939            0    27.152551   -3.7954666    1394.8301    1196.6879 
      60       373.15    72632.514    1.1957605    73538.387     73582.04    70777.116    -4092.949    2446.8752    1150.4605    59.985713    65.625067    125.61078    32.415936            0    32.415936    6.0868622    7.7027306    13.780184            0    27.569777   -3.7954666    1393.2273    1196.6879 
      70       373.15    72012.958    1.1957605    73086.785    73208.934    69743.155   -4084.1914    2078.8454    1233.6204    59.460583    65.625067    125.08565    31.907138            0    31.907138     5.861162    7.7839368    13.908346            0    27.553445   -3.7954666    1381.8893    1196.6879 
      80       373.15    72415.945    1.1957605    74053.798    73282.344    69911.694   -4182.9398    2082.4252    1195.7321    59.210164    65.625067    124.83523    31.437143            0    31.437143    6.1391886     7.483628    14.150204            0    27.773021   -3.7954666     1388.672    1196.6879 
      90       373.15    72439.232    1.1957605    74101.247    73077.667    70138.781   -4162.9384    1793.7717    1331.6318    59.126587    65.625067    124.75165    31.280544            0    31.280544    6.1750819    7.4530802     14.21788            0    27.846042   -3.7954666    1388.9949    1196.6879 
     100       373.15    72367.337    1.1957605    73885.855    73087.818    70128.339   -4263.7261    1736.9889    1423.6416    59.097993    65.625067    124.72306    31.471483            0    31.471483    6.0984083    7.4086801    14.119422            0     27.62651   -3.7954666    1387.7115    1196.6879 
     110       373.15    72392.119    1.1957605    73939.187    73098.852    70138.319   -4272.7115     1761.874    1435.3678    59.087987    65.625067    124.71305    31.406996            0    31.406996    6.1303115    7.4307399     14.11994            0    27.680991   -3.7954666     1388.134    1196.6879 
     112       373.15    72379.107    1.1957605    73927.758    73102.476    70107.087   -4267.3517    1759.9257    1441.1864    59.087795    65.625067    124.71286    31.410652            0    31.410652    6.1154714    7.4402108     14.12146            0    27.677143   -3.7954666    1387.9068    1196.6879 
Loop time of 0.0530278 on 112 procs for 112 steps with 60 atoms

99.7% CPU use with 112 MPI tasks x no OpenMP threads

Minimization stats:
  Stopping criterion = linesearch alpha is zero
  Energy initial, next-to-last, final = 
      78.4971719568784   59.0877947499379   59.0877947499379
  Force two-norm initial, final = 51.10571148955685 0.6660119280771827
  Force max component initial, final = 11.898259107049812 0.1447421635003372
  Final line search alpha, max atom move = 1.631949617272784e-08 2.3621191832761003e-09
  Iterations, force evaluations = 112 270

MPI task timing breakdown:
Section |  min time  |  avg time  |  max time  |%varavg| %total
---------------------------------------------------------------
Pair    | 0.00018502 | 0.0013269  | 0.0063272  |   4.1 |  2.50
Bond    | 2.9762e-05 | 5.6399e-05 | 0.00021816 |   0.0 |  0.11
Neigh   | 0          | 0          | 0          |   0.0 |  0.00
Comm    | 0.029005   | 0.033679   | 0.036052   |   0.8 | 63.51
Output  | 0.0080969  | 0.0081065  | 0.0081356  |   0.0 | 15.29
Modify  | 0          | 0          | 0          |   0.0 |  0.00
Other   |            | 0.009859   |            |       | 18.59

Nlocal:       0.535714 ave           3 max           0 min
Histogram: 61 0 0 43 0 0 7 0 0 1
Nghost:        2027.66 ave        2151 max        1922 min
Histogram: 3 8 18 14 21 17 14 11 4 2
Neighs:        229.661 ave        1199 max           0 min
Histogram: 61 1 13 14 14 2 1 2 1 3

Total # of neighbors = 25722
Ave neighs/atom = 428.70000
Ave special neighs/atom = 4.3333333
Neighbor list builds = 0
Dangerous builds = 0
System init for write_restart ...
WARNING: Proc sub-domain size < neighbor skin, could lead to lost atoms (../domain.cpp:964)
WARNING: Proc sub-domain size < neighbor skin, could lead to lost atoms (../domain.cpp:964)
Setting up Verlet run ...
  Unit style    : real
  Current step  : 0
  Time step     : 1.0
Per MPI rank memory allocation (min/avg/max) = 9.745 | 10.41 | 11.21 Mbytes
Step Temp Press Density Pxx Pyy Pzz Pxy Pxz Pyz PotEng KinEng TotEng E_vdwl E_coul E_pair E_bond E_angle E_dihed E_impro E_mol E_tail Enthalpy Volume 
       0       373.15    72379.107    1.1957605    73927.758    73102.476    70107.087   -4267.3517    1759.9257    1441.1864    59.087795    65.625067    124.71286    31.410652            0    31.410652    6.1154714    7.4402108     14.12146            0    27.677143   -3.7954666    1387.9068    1196.6879 
    1000    831.72889    93551.482    1.1957605     81542.63    103196.21    95915.606    10058.312   -8800.7455   -4108.1359    226.58272    146.27432    372.85704    85.515767            0    85.515767    55.020934    51.959152    34.086863            0    141.06695   -3.7954666    2005.5611    1196.6879 
    2000     1106.955    82884.133    1.1957605    84178.225    88524.273    75949.902   -9650.6927    5209.2935    7397.8559    224.49795    194.67773    419.17568    86.859855            0    86.859855     50.23379     67.83607     19.56823            0    137.63809   -3.7954666    1865.7082    1196.6879 
    3000    1101.5376    101499.75    1.1957605     96846.35    100007.81    107645.08   -10586.497   -11.642026   -13362.796    263.82496    193.72499    457.54995    83.637203            0    83.637203    79.070425     66.32122    34.796111            0    180.18776   -3.7954666    2228.9708    1196.6879 
    4000    934.43729    90814.227    1.1957605    62797.406    104653.42    104991.85    12043.279    6230.2505    6109.1554    237.33599    164.33742    401.67341    92.577864            0    92.577864    63.031164    58.201892    23.525066            0    144.75812   -3.7954666    1986.6056    1196.6879 
    5000    852.18328     92990.23    1.1957605    85458.445    96938.578    96573.667   -2042.7301   -2449.7654   -9381.8678    227.65943    149.87159    377.53103    83.685769            0    83.685769    52.109689    63.975896     27.88808            0    143.97366   -3.7954666    2000.4398    1196.6879 
    6000    1153.7151    94844.352    1.1957605     89246.86    86407.426    108878.77    2066.3124   -2529.2876    6069.9999    254.65613    202.90132    457.55745    100.44345            0    100.44345    64.450017    55.887711    33.874942            0    154.21267   -3.7954666    2112.8253    1196.6879 
    7000    990.61822    88117.295    1.1957605     96247.36    84067.269    84037.257   -5554.2172   -11758.304   -10359.472    233.90632    174.21784    408.12416    84.157026            0    84.157026    60.596892    60.125459    29.026939            0    149.74929   -3.7954666    1945.9882    1196.6879 
    8000    971.52739    86577.338    1.1957605    88142.362    82269.081    89320.571   -13246.719    321.78255    1853.5822    202.47042    170.86038     373.3308    62.529701            0    62.529701    57.170885    55.849141    26.920692            0    139.94072   -3.7954666    1884.3188    1196.6879 
    9000    1174.2733    87728.186    1.1957605    62245.252    108874.91    92064.399   -12097.899   -7553.5289    539.07269    241.77223    206.51685    448.28908    98.733943            0    98.733943    58.138969    64.454423     20.44489            0    143.03828   -3.7954666    1979.3623    1196.6879 
   10000    1026.6502    92528.278    1.1957605    89495.988     87339.58    100749.27    3108.4919   -2869.7363   -12039.397    226.26068     180.5547    406.81538    87.704537            0    87.704537    49.545776    60.832644    28.177721            0    138.55614   -3.7954666     2021.662    1196.6879 
   11000    936.29041    92978.685    1.1957605    74008.456    101699.16    103228.43   -3273.7179    9752.1211   -10864.851    232.21253    164.66333    396.87586    85.954264            0    85.954264    56.155872    67.037887    23.064513            0    146.25827   -3.7954666    2019.5832    1196.6879 
   12000    871.79498    104989.12    1.1957605     104174.5    101058.96    109733.91   -11310.252    9328.7844   -24939.062    238.96303    153.32066    392.28369    95.546546            0    95.546546    64.257813    59.908632    19.250036            0    143.41648   -3.7954666    2224.6028    1196.6879 
   13000     1028.129    103281.96    1.1957605    89133.001    94199.686    126513.19   -13823.532   -7347.4874    2893.6639    242.13265    180.81477    422.94742    103.85719            0    103.85719    58.005819     54.24636     26.02328            0    138.27546   -3.7954666    2225.4723    1196.6879 
   14000     1134.582    92072.823    1.1957605     88380.24    94456.334    93381.894   -8845.2662   -7654.0306   -3004.8193    188.29998    199.53644    387.83641     74.38086            0     74.38086    40.625035    50.482399    22.811682            0    113.91912   -3.7954666    1994.7342    1196.6879 
   15000    1054.2369    91138.986    1.1957605    104641.14    92901.344    75874.472    6500.8173    135.10191   -2392.5965    224.07259    185.40632     409.4789    81.401065            0    81.401065    37.790705    72.960536    31.920284            0    142.67152   -3.7954666     2000.079    1196.6879 
   16000    993.68992    85516.897    1.1957605    80160.397    82662.831    93727.461   -1743.4607    5881.4168     13388.28    210.52367    174.75805    385.28172    88.038726            0    88.038726    42.652912    52.122798    27.709231            0    122.48494   -3.7954666    1877.7624    1196.6879 
   17000    1124.7021    84422.753    1.1957605    77695.028    94670.242     80902.99    7102.6732   -1059.7535    6209.7125     209.9468    197.79888    407.74568    85.942872            0    85.942872    43.655826    52.177791    28.170311            0    124.00393   -3.7954666    1881.1309    1196.6879 
   18000    950.62805    93758.123    1.1957605    88862.633    106468.22    85943.518    3196.6771   -8433.9847   -11510.137    216.61692    167.18486    383.80178     92.29122            0     92.29122    47.960597    58.540907    17.824195            0     124.3257   -3.7954666    2020.1122    1196.6879 
   19000    1072.1415    95767.229    1.1957605    106700.99      96741.4    83859.294    4166.1257   -3029.3885   -9421.4016    233.63078    188.55515    422.18593    80.969638            0    80.969638    80.775994     46.22213    25.663016            0    152.66114   -3.7954666    2093.5602    1196.6879 
   20000     980.7414    106207.18    1.1957605    107574.14     104462.5     106584.9   -1683.9443   -2352.6933    15428.338    250.88229    172.48083    423.36311    84.332239            0    84.332239    82.399665    59.235885      24.9145            0    166.55005   -3.7954666    2276.9404    1196.6879 
   21000    1133.6728    79624.349    1.1957605    65145.244    106696.91     67030.89   -7476.3403    4171.5906    2945.4962    224.07301    199.37653    423.44955    69.396304            0    69.396304    47.855547     75.55855    31.262613            0    154.67671   -3.7954666    1813.0908    1196.6879 
   22000    893.02516    90908.323    1.1957605    77395.141    114651.29    80678.538   -6986.9596    1593.7937    49.037654    212.99091    157.05436    370.04527    83.172515            0    83.172515    49.336062    52.436378    28.045954            0    129.81839   -3.7954666    1956.6197    1196.6879 
   23000    1075.8319    80754.715    1.1957605    76869.663    75576.317    89818.166    14646.013    10899.919   -3694.3472    164.16096    189.20418    353.36514    61.154343            0    61.154343    42.874927    43.806256    16.325438            0    103.00662   -3.7954666     1762.734    1196.6879 
   24000    866.51239    78416.214    1.1957605    53421.183    80961.636    100865.82   -8793.8634   -11704.883   -13888.395     230.9461    152.39162    383.33772    80.280427            0    80.280427    67.666641    41.865378    41.133652            0    150.66567   -3.7954666     1751.894    1196.6879 
   25000    1095.6826    89880.983    1.1957605    92503.406    93438.643    83700.899    3084.9868    7581.6637   -9993.8679    232.72364    192.69528    425.41892    74.406355            0    74.406355    72.972435    56.091888    29.252961            0    158.31728   -3.7954666    1994.0637    1196.6879 
   26000    1039.0204    79781.435    1.1957605    73667.867    80979.008    84697.429    8390.9636    2165.8501   -13214.661    196.70244    182.73022    379.43266    72.528058            0    72.528058     58.97936    42.993231    22.201787            0    124.17438   -3.7954666    1771.8154    1196.6879 
   27000    1017.4613    93045.111    1.1957605     93125.81    89268.661    96740.862   -4912.5502   -255.58778    8897.9182    197.87641    178.93867    376.81508    76.014452            0    76.014452    61.574635    35.662515    24.624809            0    121.86196   -3.7954666    2000.6817    1196.6879 
   28000    896.00134    86012.088    1.1957605    72885.525    95560.349    89590.389    3156.5943   -2800.9692   -2940.5541    244.13548    157.57778    401.71326    86.193877            0    86.193877    72.644656    68.509219    16.787732            0    157.94161   -3.7954666    1902.8363    1196.6879 
   29000    919.54253    77726.553    1.1957605    68039.584     86584.93    78555.145   -4656.2086    8792.9847    2459.4394    214.79861    161.71792    376.51653     74.54874            0     74.54874    50.102729    55.382638    34.764506            0    140.24987   -3.7954666    1733.0365    1196.6879 
   30000    1131.3021     76873.44    1.1957605    89616.185    79625.662    61378.472    14834.351   -2811.9813   -10650.645    207.38174     198.9596    406.34134    83.933125            0    83.933125    52.008685    44.756979    26.682951            0    123.44862   -3.7954666    1747.9724    1196.6879 
   31000    861.64952    88258.306    1.1957605    83229.036    98528.228    83017.653   -378.38586   -17636.096    10068.312    197.43617     151.5364    348.97257    77.850091            0    77.850091     49.87694    47.594854    22.114284            0    119.58608   -3.7954666    1889.2976    1196.6879 
   32000    1066.3173    96724.673    1.1957605    86492.943    111321.59    92359.489   -27.541626    17114.142   -6078.2809    222.04298    187.53087    409.57385    85.275403            0    85.275403    41.193361    69.876316    25.697901            0    136.76758   -3.7954666    2097.6579    1196.6879 
   33000    883.79983    86475.526    1.1957605     81959.84    82675.408    94791.329   -3355.9475    9996.5466   -11604.319    236.74584    155.43193    392.17777    80.837157            0    80.837157    64.740037    65.527496    25.641154            0    155.90869   -3.7954666    1901.3889    1196.6879 
   34000    1155.8196     83959.21    1.1957605    88978.896    75460.303     87438.43    4770.3598    6542.1146   -978.18553    238.03178    203.27144    441.30322    87.005797            0    87.005797    63.710258    56.248843    31.066881            0    151.02598   -3.7954666    1906.5985    1196.6879 
   35000    1098.5775    89727.077    1.1957605    84554.189    89391.026    95236.017    3756.1098   -855.51769   -11502.245    213.89366     193.2044    407.09806    73.222163            0    73.222163    55.656143    63.090832    21.924517            0    140.67149   -3.7954666    1973.0568    1196.6879 
   36000    1082.5303    92852.072    1.1957605    89953.705    104210.62    84391.893     9132.763   -8331.1738    15500.063    251.52239    190.38222    441.90461    74.192573            0    74.192573    74.937565    73.713468    28.678787            0    177.32982   -3.7954666    2062.4022    1196.6879 
   37000    1127.0191    69611.111    1.1957605     62425.77    77366.581    69040.982    5816.8239   -9106.2063    6423.6746    184.25054    198.20635     382.4569    62.264263            0    62.264263    42.239945    54.453039    25.293295            0    121.98628   -3.7954666    1597.3424    1196.6879 
   38000    1133.8375    103942.06    1.1957605    95299.781     102193.3     114333.1   -9529.4775   -14073.669   -8979.4522    266.30323     199.4055    465.70872    99.427632            0    99.427632    82.254204    58.788134    25.833255            0    166.87559   -3.7954666     2279.754    1196.6879 
   39000    1006.0537    89529.628    1.1957605    89392.179    76782.907     102413.8     3863.415   -308.50002    1830.3414    203.79952    176.93244    380.73197    53.537075            0    53.537075    62.599085    58.227526    29.435837            0    150.26245   -3.7954666    1943.2447    1196.6879 
   40000    1029.8502     85161.13    1.1957605    82120.384      96446.8    76916.205    9052.0278   -7672.0227    6541.6033    239.72942    181.11749    420.84691    72.055476            0    72.055476    73.879432    59.936255     33.85826            0    167.67395   -3.7954666    1907.1186    1196.6879 
   41000    890.18539    68465.673    1.1957605    76519.868    73160.111    55717.041    3793.0583    6016.9969    7024.8297    212.88123    156.55494    369.43617      90.8139            0      90.8139    40.704585    57.281496    24.081253            0    122.06733   -3.7954666     1564.331    1196.6879 
   42000    1062.3643    70619.969    1.1957605    58130.632    76724.999    77004.274   -14479.484   -7461.7145    9605.2362    190.59466    186.83567    377.43033    80.074755            0    80.074755    43.303568    46.158971     21.05737            0    110.51991   -3.7954666    1609.9229    1196.6879 
   43000    901.68633    90706.518    1.1957605    90847.137     83511.71    97760.706   -7674.8325    7835.3527   -5611.7603    224.32794    158.57758    382.90552    76.024104            0    76.024104    65.979851     54.76161    27.562375            0    148.30384   -3.7954666    1965.9579    1196.6879 
   44000    996.73063    91498.752    1.1957605      85330.6     99129.87    90035.785   -4965.7246    11164.121    8908.9352    234.42732    175.29282    409.72014    90.607454            0    90.607454    59.477569    63.614482    20.727818            0    143.81987   -3.7954666     2006.599    1196.6879 
   45000    965.06162    79287.508    1.1957605    76399.936    89311.335    72151.254   -4537.6727   -6609.9665    115.25171    169.44804    169.72326     339.1713    48.157925            0    48.157925    49.523517    43.200488    28.566115            0    121.29012   -3.7954666    1722.9338    1196.6879 
   46000    1045.3878    80282.732    1.1957605    75019.028    90440.607    75388.561     11964.64    -3237.694    2289.7685    251.50092    183.85005    435.35098    90.354472            0    90.354472     61.36627     69.95108      29.8291            0    161.14645   -3.7954666    1836.4826    1196.6879 
   47000    1051.2266    88389.471    1.1957605      96436.7    86073.652     82658.06     5352.038   -3837.0545   -12526.268    241.35679     184.8769    426.23369    99.310188            0    99.310188    56.019175    56.321845    29.705579            0     142.0466   -3.7954666    1968.8479    1196.6879 
   48000    953.12041    86066.471    1.1957605    73898.651    69494.054    114806.71    7165.9324    17514.396   -11130.786    214.26999    167.62318    381.89317    65.958863            0    65.958863    54.937395    61.014895    32.358833            0    148.31112   -3.7954666    1883.9653    1196.6879 
   49000    1003.5947    93903.436    1.1957605    96182.315    88738.776    96789.217    4855.0337   -10203.522    2175.0129    228.03328    176.49998    404.53326    80.842983            0    80.842983    58.041888    59.733469    29.414936            0    147.19029   -3.7954666    2043.3798    1196.6879 
   50000    1028.4209    83276.018    1.1957605    76287.698    89010.097    84530.259    953.53788   -1881.7913    -6250.724    215.09486    180.86611    395.96097    84.074655            0    84.074655    37.720498    58.877234    34.422468            0     131.0202   -3.7954666    1849.3328    1196.6879 
   51000    879.33018    80769.439    1.1957605    64858.939    81288.646    96160.733    6757.9776    335.18554   -2951.9764    225.00053    154.64586    379.64638    80.478921            0    80.478921    51.681937    68.035374    24.804294            0    144.52161   -3.7954666    1789.2723    1196.6879 
   52000     1100.413    80315.448    1.1957605    66363.472    88686.959    85895.912   -7538.1842   -8941.2304    2682.7944    207.43463     193.5272    400.96184    77.806502            0    77.806502    51.719356    60.288346     17.62043            0    129.62813   -3.7954666    1802.6644    1196.6879 
   53000    842.41094    83744.248    1.1957605    89137.923    83887.046    78207.776    2007.0715     4772.338    9251.4671      201.961    148.15295    350.11395    77.616038            0    77.616038    34.660526    65.936488     23.74795            0    124.34496   -3.7954666    1811.6576    1196.6879 
   54000    1089.2123    89195.166    1.1957605    88244.827    76067.817    103272.85    6405.3948    1317.3337   -16165.543    215.28694    191.55736     406.8443    94.127823            0    94.127823    53.140817    43.445897    24.572405            0    121.15912   -3.7954666    1963.5199    1196.6879 
   55000    989.61569    67023.827    1.1957605     73723.95    73198.774    54148.758    19077.851    9084.8252   -16431.712    217.22806    174.04153    391.26959    76.358565            0    76.358565    55.262427    57.294763    28.312304            0    140.86949   -3.7954666    1561.0006    1196.6879 
   56000     911.4218    101401.39    1.1957605    98516.197     99165.47    106522.51    4239.2285   -8237.4876   -3390.7934    235.66151    160.28974    395.95125     93.21314            0     93.21314    73.129101    41.005245    28.314023            0    142.44837   -3.7954666    2165.6556    1196.6879 
   57000    1052.0976    95639.905    1.1957605     92948.03     104601.3    89370.379    1034.1665     13914.11     5256.663    218.34872    185.03008     403.3788    86.727489            0    86.727489    48.925664     64.48474    18.210824            0    131.62123   -3.7954666     2072.531    1196.6879 
   58000     1011.517     91290.95    1.1957605    96536.457    94498.288    82838.104   -7864.2196     3518.396   -4238.8944    242.49679    177.89326    420.39005    104.69713            0    104.69713    39.237825    56.487561    42.074271            0    137.79966   -3.7954666    2013.6422    1196.6879 
   59000    896.52915    84779.726    1.1957605    74447.685    95729.863    84161.631   -3028.5833   -4386.3433    4183.2562     218.3778     157.6706     376.0484    85.831062            0    85.831062     50.16391    61.683381    20.699447            0    132.54674   -3.7954666    1855.6637    1196.6879 
   60000    810.50257    82390.243    1.1957605    67453.524    96579.684     83137.52    11170.337   -8571.0512     9219.022    215.67357     142.5413    358.21486    85.565515            0    85.565515    49.826659     57.77633    22.505063            0    130.10805   -3.7954666    1796.1278    1196.6879 
   61000    1012.5297     94424.75    1.1957605     86942.13    107283.75    89048.373   -4741.9257    51.775956   -12234.971    246.78147    178.07136    424.85283    83.461066            0    83.461066    64.612914    69.966345    28.741141            0     163.3204   -3.7954666    2072.7976    1196.6879 
   62000    1181.6426    90939.658    1.1957605    88931.687    79640.262    104247.03   -174.82776   -1438.6406   -6818.3008    236.32486    207.81288    444.13774    92.558303            0    92.558303    68.134826    49.386657    26.245078            0    143.76656   -3.7954666     2031.259    1196.6879 
   63000     1017.187    80654.898    1.1957605    80200.837    72860.374    88903.481    2031.1831    10555.317   -3338.4242    195.51173    178.89043    374.40217    70.330156            0    70.330156    53.597776    49.752381    21.831422            0    125.18158   -3.7954666     1782.029    1196.6879 
   64000    1119.6017    103481.74    1.1957605     96761.97    105979.66     107703.6    4641.5296    18615.338   -7035.6171    253.85935    196.90189    450.76124    81.796927            0    81.796927    75.638177    60.403556    36.020695            0    172.06243   -3.7954666    2256.7728    1196.6879 
   65000    1039.1853    92728.573    1.1957605    82106.834    100677.81    95401.078   -5785.2559   -3257.4097   -12154.247    226.42167    182.75923     409.1809    88.803665            0    88.803665    50.687194    58.926394    28.004418            0    137.61801   -3.7954666    2027.5232    1196.6879 
   66000    1010.0531    76054.833    1.1957605    67216.405    87300.245    73647.851   -5288.8709    3694.7559    7094.4763    204.14866    177.63581    381.78446    80.467931            0    80.467931    34.700869    53.565543    35.414316            0    123.68073   -3.7954666    1709.1288    1196.6879 
   67000    1196.3194    97013.943    1.1957605    98661.777    92538.552      99841.5   -15579.556    1109.8752   -5331.6916    231.69589    210.39404    442.08993     103.4042            0     103.4042    49.738997    50.269444    28.283244            0    128.29169   -3.7954666    2135.2225    1196.6879 
   68000    1055.2926    91367.096    1.1957605    89267.853    89159.067    95674.367    -4237.894    10214.618   -14810.847     227.6397    185.59198    413.23168    87.088153            0    87.088153    54.656471    57.664821    28.230251            0    140.55154   -3.7954666    2007.8128    1196.6879 
   69000    1114.6561    84830.676    1.1957605      91388.6    90417.131    72686.297    1395.1064   -2121.5685   -2536.7671    234.93219     196.0321    430.96429    86.519128            0    86.519128    57.873581    58.015624    32.523853            0    148.41306   -3.7954666    1911.4688    1196.6879 
   70000    910.42166     73105.18    1.1957605     62724.06    77518.553    79072.927   -594.74449   -11644.855   -3091.2244    196.58154    160.11385    356.69538    72.383316            0    72.383316    43.963804    51.665549    28.568866            0    124.19822   -3.7954666     1632.561    1196.6879 
   71000     979.6078    100715.09    1.1957605    89043.733     91249.63     121851.9     9681.012   -1157.2042   -7168.6886    217.67724    172.28146    389.95871    79.501202            0    79.501202    67.531757    46.606441    24.037843            0    138.17604   -3.7954666    2147.6853    1196.6879 
   72000    925.19535    76514.031    1.1957605    61496.672    74130.285    93915.137   -1146.5603   -4620.7397   -47.756606    230.48158    162.71206    393.19364    93.969105            0    93.969105    31.338253    70.543409    34.630812            0    136.51247   -3.7954666    1728.5522    1196.6879 
   73000    917.56758    90672.094    1.1957605    85745.037    84463.904    101807.34    1796.8576    2908.5255   -13445.435    201.97863    161.37059    363.34922    80.684838            0    80.684838    48.002125    51.645053    21.646613            0    121.29379   -3.7954666    1945.8008    1196.6879 
   74000    987.69246    82372.886    1.1957605    90539.737    71664.139    84914.784    7887.3672   -10914.481   -4439.9366    207.21112    173.70329    380.91441    68.827468            0    68.827468    57.278034    50.530138    30.575477            0    138.38365   -3.7954666    1818.5244    1196.6879 
   75000    1020.5313    96609.091    1.1957605    101500.16    85808.106    102519.01    -10824.64    4099.5989   -7119.0995    236.10854    179.47858    415.58713    103.31893            0    103.31893    52.130651    59.990586    20.668374            0    132.78961   -3.7954666     2101.654    1196.6879 
   76000    923.62201    95827.115    1.1957605    87730.602    104222.71     95528.03   -2436.4864    4005.8032   -9730.3559     223.2424    162.43537    385.67776    79.254286            0    79.254286    65.333004    56.650419    22.004688            0    143.98811   -3.7954666    2058.0972    1196.6879 
   77000    826.83546    88198.682    1.1957605    99870.608    67226.979    97498.457   -2220.8133    7953.3379   -3948.0696    252.75478    145.41373    398.16851    78.733538            0    78.733538    75.076195    67.641522    31.303529            0    174.02125   -3.7954666     1937.453    1196.6879 
   78000    963.70202    97656.762    1.1957605    105311.12     87054.71    100604.46    21413.654   -5185.8348   -1111.2755    238.98684    169.48415    408.47099    101.39123            0    101.39123    71.657952    47.763718    18.173948            0    137.59562   -3.7954666    2112.8223    1196.6879 
   79000    922.50014    84060.234    1.1957605    78536.182    78844.976    94799.543    15561.969    11401.327    16650.368    257.01687    162.23806    419.25494    86.010618            0    86.010618    65.434046    73.949498     31.62271            0    171.00625   -3.7954666    1886.3133    1196.6879 
   80000    1124.7782    93398.678    1.1957605    110759.97    92911.692    76524.368   -3674.8303    4381.9377   -304.66944    200.20665    197.81226    398.01891    67.805713            0    67.805713    55.952814    47.195132    29.252991            0    132.40094   -3.7954666    2028.0562    1196.6879 
   81000    1034.5107    87665.255    1.1957605    89284.339    96516.982    77194.445    -10918.12   -972.28284    4829.3263    186.37542    181.93711    368.31253    55.099406            0    55.099406    52.140705    49.621419    29.513886            0    131.27601   -3.7954666    1898.2874    1196.6879 
   82000    911.16687    85604.016    1.1957605     76982.13    95237.791    84592.127    16561.753   -5747.6866   -1880.6359    254.96929    160.24491    415.21419     82.63598            0     82.63598    69.585469    78.009945    24.737894            0    172.33331   -3.7954666    1909.2154    1196.6879 
   83000    954.84986    90091.544    1.1957605    98368.596     83618.38    88287.656   -22252.319   -4831.2972   -2623.9983    225.08697    167.92734    393.01431    73.868375            0    73.868375    65.649186    60.991299    24.578111            0     151.2186   -3.7954666    1965.3339    1196.6879 
   84000    838.13636    74680.865    1.1957605    62516.791     66016.91    95508.894   -13115.193    7365.2222   -3540.4022    221.30287    147.40119    368.70406    80.560667            0    80.560667    43.798772    65.816278     31.12715            0     140.7422   -3.7954666    1672.0693    1196.6879 
   85000    1027.6262    74061.242    1.1957605    96340.217    64331.461    61512.047    -6765.096   -5632.4094   -29.881848    219.05271    180.72635    399.77906    79.692375            0    79.692375    59.098826    59.672504    20.589006            0    139.36034   -3.7954666    1692.3304    1196.6879 
   86000    987.34598    100633.38    1.1957605    98598.992    83926.128    119375.03   -3314.2204   -9112.7765   -15463.175    249.84444    173.64236     423.4868    91.567511            0    91.567511    79.016564    61.169385    18.090985            0    158.27693   -3.7954666    2179.7875    1196.6879 
   87000    826.24323    95197.839    1.1957605    110758.21    99125.628    75709.673   -720.92154    4243.2653   -13952.977    235.19981    145.30957    380.50938    82.117978            0    82.117978    82.325283    41.130315     29.62623            0    153.08183   -3.7954666    2041.9464    1196.6879 
   88000    998.04397    81968.337    1.1957605    79049.565     79871.66    86983.787    5492.5026   -1101.2557   -13731.762    210.35691    175.52379     385.8807    97.417564            0    97.417564     40.23291    39.647125    33.059308            0    112.93934   -3.7954666    1816.4303    1196.6879 
   89000    795.96496    95504.707    1.1957605    106925.69    87667.943    91920.487    2452.0833    4101.8244    1172.6127    213.31594     139.9846    353.30054    77.485562            0    77.485562     55.92847    46.331637    33.570274            0    135.83038   -3.7954666    2020.0932    1196.6879 
   90000    989.45447    95282.814    1.1957605    83067.467    106631.15    96149.827    10057.582    6578.5183    2889.9528    233.67095    174.01317    407.68412    68.518167            0    68.518167    76.017119    68.549517    20.586147            0    165.15278   -3.7954666    2070.6042    1196.6879 
   91000    1028.3612    85861.414    1.1957605    81849.491    86159.342     89575.41   -4613.5343    5389.0296    1282.5985    201.07892    180.85561    381.93453    61.950669            0    61.950669    45.499966    62.856678     30.77161            0    139.12825   -3.7954666    1880.4279    1196.6879 
   92000    977.10945    83761.241    1.1957605     88732.51    77094.423    85456.791    5117.2106    9695.0626   -18935.857    225.73002    171.84208    397.57211    90.744899            0    90.744899    48.131967    63.493131    23.360025            0    134.98512   -3.7954666    1859.4123    1196.6879 
   93000      1065.42    93311.256    1.1957605    112606.59    88422.852    78904.322    1497.1857    4571.8933    1625.1378     237.3955    187.37307    424.76857    73.408483            0    73.408483    76.136663    44.991984    42.858371            0    163.98702   -3.7954666    2053.2801    1196.6879 
   94000    925.51011    85590.285    1.1957605    76946.112    88343.714    91481.029   -11440.665    -13106.24   -559.89866    253.81629    162.76742    416.58371    87.713919            0    87.713919    59.096579    79.632812    27.372983            0    166.10237   -3.7954666    1910.3452    1196.6879 
   95000    841.57295    90712.032    1.1957605    93452.059    86087.067    92596.971    3626.2505   -1959.5657   -11155.751    242.18354    148.00558    390.18911    101.34797            0    101.34797    55.182717    57.379881    28.272963            0    140.83556   -3.7954666    1973.3378    1196.6879 
   96000    947.00639    83054.415    1.1957605    74748.504    85619.401     88795.34   -9299.4858    2897.4075    1859.3622     242.6938    166.54792    409.24172    88.994102            0    88.994102    64.311471    59.412082    29.976146            0     153.6997   -3.7954666    1858.7461    1196.6879 
   97000     909.9048    93361.992    1.1957605    100571.86     77048.63    102465.48   -1798.4076    5293.0535   -2777.5191    231.07813    160.02295    391.10108    105.07333            0    105.07333    51.664598    45.497893    28.842303            0    126.00479   -3.7954666    2020.4981    1196.6879 
   98000    1103.1258    102839.46    1.1957605    97013.828    107597.46    103907.09    3788.9163   -10908.047    6789.3802     242.3917    194.00431    436.39601    110.07562            0    110.07562    56.854766    48.574345     26.88697            0    132.31608   -3.7954666    2231.1982    1196.6879 
   99000    993.04232    96551.087    1.1957605     100591.3    109220.09    79841.879   -3080.0278   -15326.076    16001.175     211.5893    174.64416    386.23346    65.915164            0    65.915164    74.691807    47.151421    23.830903            0    145.67413   -3.7954666     2071.288    1196.6879 
  100000    787.07085    92181.074    1.1957605    89508.641    98658.716    88375.866    2221.8553    2155.8149    3655.8285    179.24232    138.42041    317.66273    70.470171            0    70.470171    53.237887    36.227267    19.306995            0    108.77215   -3.7954666    1926.4498    1196.6879 
  101000     897.4849    98265.311    1.1957605    110947.25    88197.316    95651.367     8486.127    1601.4211   -13738.102    239.55157    157.83869    397.39026    77.614976            0    77.614976    69.270936    67.904146     24.76151            0    161.93659   -3.7954666    2112.3623    1196.6879 
  102000    1184.7996    98222.696    1.1957605    92817.987    104231.31    97618.793   -12999.405   -7886.9355   -3159.4534    212.21978    208.36808    420.58787    72.659441            0    72.659441    57.664212    58.362918    23.533212            0    139.56034   -3.7954666    2134.8161    1196.6879 
  103000    1059.8759    95649.461    1.1957605    104974.32    88221.169    93752.898    9709.5948    19873.754    -9006.797    204.87526    186.39803    391.27328    83.152984            0    83.152984    50.764789    34.081424    36.876059            0    121.72227   -3.7954666    2060.5922    1196.6879 
  104000    1100.1052    85245.792    1.1957605    62522.144    96187.568    97027.664   -10548.117    261.04365    -5489.975    223.13223    193.47307     416.6053    95.162777            0    95.162777    51.967007    50.277235    25.725212            0    127.96945   -3.7954666    1904.3546    1196.6879 
  105000    1122.7909    91542.932    1.1957605    93005.499    96297.917    85325.379   -10469.547    4444.5371   -8161.9699    221.05102    197.46276    418.51378    71.658228            0    71.658228    50.713564    68.177728    30.501505            0     149.3928   -3.7954666    2016.1637    1196.6879 
  106000    818.75162    77100.726    1.1957605    59190.816    69998.517    102112.85   -1088.3487    820.12571   -3171.1213    231.17395    143.99204    375.16599    97.197716            0    97.197716    50.478779    54.627477    28.869976            0    133.97623   -3.7954666    1720.7638    1196.6879 
  107000    850.96684    81341.128    1.1957605    73122.929    77434.276    93466.178    2531.2522    3565.1138   -16995.956    218.82911    149.65766    368.48677    88.621738            0    88.621738    49.622953    64.606055    15.978363            0    130.20737   -3.7954666      1788.09    1196.6879 
  108000    1064.2171    82743.315    1.1957605    87200.325    77774.704    83254.918   -5674.8135   -10940.415    -3042.752    236.89201    187.16151    424.05352    85.900676            0    85.900676    56.288642    70.648555    24.054141            0    150.99134   -3.7954666    1868.1284    1196.6879 
  109000    1069.2018    77228.348    1.1957605    75174.996     79402.64     77107.41    3854.4626   -20966.185    4939.3887    233.25476    188.03817    421.29293    83.218512            0    83.218512    63.151931     62.04806    24.836257            0    150.03625   -3.7954666     1769.118    1196.6879 
  110000    841.43229    93981.579    1.1957605    95995.423    88783.005     97166.31    -7508.432    4929.2855   -8259.0431    212.11134    147.98084    360.09218    79.628521            0    79.628521    63.005796    50.151769    19.325252            0    132.48282   -3.7954666    2000.3025    1196.6879 
  111000    799.50251    109875.19    1.1957605    94507.475    109276.12    125841.99    6736.4838   -11917.737    3872.9143    264.24793    140.60674    404.85467    124.60178            0    124.60178    79.087464    40.642281    19.916411            0    139.64616   -3.7954666    2322.4477    1196.6879 
  112000    1058.3617    79566.521    1.1957605    86951.377    72848.112    78900.076   -13255.809     5072.395    4474.2364    227.54729    186.13174    413.67903    58.409819            0    58.409819    62.863487    73.812096    32.461888            0    169.13747   -3.7954666     1802.311    1196.6879 
  113000    1092.7139    94648.332    1.1957605    115655.11    94642.727    73647.161    5680.8488   -13065.801    8869.0547     232.3971    192.17319    424.57028    81.537257            0    81.537257    60.892478    64.734151     25.23321            0    150.85984   -3.7954666    2076.4171    1196.6879 
  114000    906.34126    94582.078    1.1957605    103496.72    91557.948     88691.57    12480.571   -804.71703   -1845.5324    191.88114    159.39624    351.27738    76.487475            0    76.487475    50.395997    45.945252    19.052416            0    115.39366   -3.7954666    2001.9679    1196.6879 
  115000    1170.6277    90968.729    1.1957605    92994.088    83135.317    96776.781    103.57918    3445.9716   -3917.6904    199.16836     205.8757    405.04407    80.897688            0    80.897688    50.057565     46.18838    22.024731            0    118.27068   -3.7954666    1992.6727    1196.6879 
  116000    938.86724    82825.836    1.1957605    85636.229    85026.496    77814.783    10228.813   -7149.9092    5035.1241     211.3856    165.11651     376.5021    70.318172            0    70.318172    55.520587    58.366005    27.180831            0    141.06742   -3.7954666    1822.0172    1196.6879 
  117000    1062.6736    103800.77    1.1957605    96923.793    108549.61     105928.9   -20043.145   -3129.1813    -2352.074    230.94756    186.89006    417.83762    90.832281            0    90.832281    66.126472    50.828561    23.160243            0    140.11528   -3.7954666     2229.417    1196.6879 
  118000    992.24893    78691.579    1.1957605    66143.399    101593.74    68337.597    2296.5673    2324.3885   -20113.936     219.6652    174.50463    394.16983    86.333398            0    86.333398    59.195008    55.264122    18.872673            0     133.3318   -3.7954666    1767.5319    1196.6879 
  119000    1054.2563    88778.774    1.1957605    85002.051    85244.515    96089.755    3751.9089    12485.164      16658.5    207.00505    185.40973    392.41479    76.856047            0    76.856047    51.122133    57.035864     21.99101            0    130.14901   -3.7954666    1941.8233    1196.6879 
  120000    991.96848    85335.318    1.1957605    86273.081    82413.811    87319.061   -890.09732   -668.01353   -2029.3166    187.88001    174.45531    362.33531    69.885191            0    69.885191    38.194841    48.005262    31.794713            0    117.99482   -3.7954666     1851.647    1196.6879 
  121000    1023.7399    90411.998    1.1957605    79990.107    77395.067    113850.82   -12061.573    4963.4295   -1897.2319    222.19781    180.04288    402.24069    81.441137            0    81.441137    62.166144     54.18007    24.410458            0    140.75667   -3.7954666     1980.153    1196.6879 
  122000    933.35699    87920.135    1.1957605    109044.24    76646.913    78069.255    11722.521    701.04909     12717.06    250.79417    164.14743     414.9416     66.87381            0     66.87381    75.344406    86.804516    21.771434            0    183.92036   -3.7954666    1949.3648    1196.6879 
  123000    1007.5115     90760.92    1.1957605    78208.131    105764.03    88310.594    4519.8966   -9587.7755    8862.3583    194.06256    177.18883    371.25139    69.627079            0    69.627079    54.507822    54.199842    15.727822            0    124.43549   -3.7954666    1955.2532    1196.6879 
  124000    1048.0907    68679.601    1.1957605    82575.397    44136.417    79326.989   -12293.675    10125.074    10888.804    238.40729    184.32539    422.73268     103.3552            0     103.3552    50.005734    62.715483    22.330872            0    135.05209   -3.7954666    1621.3611    1196.6879 
  125000    1076.3852    88144.224    1.1957605    89689.947    87089.158    87653.567    4072.0161    9775.6689    3435.2477     228.2241    189.30149    417.52559    67.166762            0    67.166762    69.312503    63.958839    27.785999            0    161.05734   -3.7954666    1955.8596    1196.6879 
  126000    906.79164    95694.967    1.1957605    99933.498    87272.258    99879.144    12186.609   -2832.8636    1560.0255    206.52872    159.47544    366.00416    72.085059            0    72.085059    55.020666    49.255532    30.167462            0    134.44366   -3.7954666    2036.1173    1196.6879 
  127000    1255.4331    105071.71    1.1957605    107307.99    108826.72    99080.422    16568.811   -19424.602     1596.772    205.62877    220.79025    426.41902    58.010625            0    58.010625    79.299851    43.917169     24.40113            0    147.61815   -3.7954666    2260.1795    1196.6879 
  128000     919.7323    84803.472    1.1957605    91999.353    79082.158    83328.907     11872.26   -7788.6539   -12624.033     200.0786    161.75129    361.82989    75.521981            0    75.521981     47.45893    49.628913     27.46878            0    124.55662   -3.7954666    1841.8596    1196.6879 
  129000     1010.192    85480.249    1.1957605    68851.626    86243.228    101345.89   -8189.1486   -3821.0462    16089.381    225.08047    177.66023     402.7407    76.883083            0    76.883083    66.529089    59.336132    22.332164            0    148.19738   -3.7954666    1894.5818    1196.6879 
  130000    858.37029    82045.829    1.1957605    92716.603    77870.292     75550.59    12952.435    1208.0446   -6782.2278    194.98626    150.95969    345.94595    69.966803            0    69.966803    43.550366    59.676188    21.792907            0    125.01946   -3.7954666     1777.848    1196.6879 
  131000    1048.3015    84712.531    1.1957605    77984.135    103282.77    72870.693    -14866.15   -6697.9849   -6317.1737    238.87668    184.36248    423.23916    91.743897            0    91.743897    76.741739    46.615218    23.775824            0    147.13278   -3.7954666    1901.6817    1196.6879 
  132000    937.82799    91824.292    1.1957605    75786.462    102954.93    96731.485    1706.2624   -5786.9252   -12169.088    217.00286    164.93374    381.93659    73.528747            0    73.528747    72.983501    49.966501    20.524107            0    143.47411   -3.7954666    1984.4969    1196.6879 
  133000    1129.6353    90966.219    1.1957605    99957.228    91234.168    81707.263   -9311.8758    1596.6088   -15513.463    236.11305    198.66647    434.77952    80.652487            0    80.652487    56.194784    63.875101    35.390679            0    155.46056   -3.7954666    2022.3644    1196.6879 
  134000     917.8097    102364.52    1.1957605     97268.85    93189.244    116635.46   -10116.357   -6215.4251   -3509.0629    214.78034    161.41317     376.1935    76.255146            0    76.255146    69.923078    48.457896    20.144217            0    138.52519   -3.7954666    2162.7068    1196.6879 
  135000    1015.4892    90083.588    1.1957605    77280.169    99738.635    93231.962    -1657.776   -9784.4336    4848.4927     209.2198    178.59185    387.81165     58.22873            0     58.22873    64.505879    61.641779     24.84341            0    150.99107   -3.7954666    1959.9924    1196.6879 
  136000     1070.611    90917.154    1.1957605    80074.131    105630.37    87046.961   -11576.934    5887.2588   -4133.9572    237.88489      188.286    426.17089     68.36318            0     68.36318    69.616567    65.195957    34.709186            0    169.52171   -3.7954666    2012.8994    1196.6879 
  137000    1117.4971    65451.408    1.1957605    71846.942    69347.697    55159.586   -14249.879   -14738.588   -11962.762    225.11221    196.53175    421.64396     75.40129            0     75.40129    59.159837    61.070813    29.480272            0    149.71092   -3.7954666    1563.9324    1196.6879 
  138000    856.94734    85619.384    1.1957605    70019.988    89175.777    97662.388   -6420.3793    14104.785    15275.235    219.79579    150.70944    370.50523    61.904772            0    61.904772    62.416577    69.170863    26.303583            0    157.89102   -3.7954666    1864.7746    1196.6879 
  139000    1040.2967    88447.892    1.1957605    98907.363    74384.022     92052.29   -1827.5041    5360.2268    3427.2328     197.9506    182.95469    380.90529    69.192902            0    69.192902    61.445769    41.069561    26.242368            0     128.7577   -3.7954666    1924.5391    1196.6879 
  140000    1027.0183    92709.993    1.1957605    104135.05     87081.12    86913.811   -8442.1643   -2088.9826   -6430.9162    223.62286    180.61944     404.2423    80.119351            0    80.119351    68.550399    47.197212    27.755899            0    143.50351   -3.7954666    2022.2603    1196.6879 
  141000    859.73908    99507.977    1.1957605     110484.2    89550.719    98489.013   -8011.1165    11335.919    -6463.212    237.27117    151.20041    388.47159    84.902473            0    84.902473    64.226671    66.155596    21.986432            0     152.3687   -3.7954666    2125.1312    1196.6879 
  142000    911.98724    90261.608    1.1957605    107712.23    72624.022    90448.575   -18787.983    969.19846   -4289.8143    251.50474    160.38918    411.89393    88.379206            0    88.379206    60.409671    74.682639    28.033227            0    163.12554   -3.7954666    1987.1816    1196.6879 
  143000     943.9016    87709.773    1.1957605    100367.44    83113.161    79648.719   -13136.875     11903.37    -5246.738    228.70007    166.00189    394.70196    83.781859            0    83.781859    46.684339    70.639754    27.594118            0    144.91821   -3.7954666    1925.4538    1196.6879 
  144000    1045.9553    104252.71    1.1957605    117137.12    108975.58    86645.437     19644.17   -4795.1311    5579.7467    260.51098    183.94985    444.46084    103.49491            0    103.49491    56.382079    77.316178    23.317818            0    157.01607   -3.7954666    2263.9277    1196.6879 
  145000    946.20417    83785.793    1.1957605    84946.185    88576.002    77835.191   -4620.3385   -4618.8644   -7013.9102     245.7452    166.40684    412.15204    97.046928            0    97.046928    47.748697    70.716173    30.233402            0    148.69827   -3.7954666    1874.4207    1196.6879 
  146000    963.43279    82953.074    1.1957605    96306.515    70269.488     82283.22   -11402.562    2664.1324   -19413.703    216.83761     169.4368    386.27441    65.727163            0    65.727163    60.437954    64.789345    25.883151            0    151.11045   -3.7954666    1834.0101    1196.6879 
  147000    1095.3583    101380.07    1.1957605    98510.314    102198.12    103431.77    3784.9917   -4582.8834   -11921.895    229.91975    192.63826      422.558    77.462679            0    77.462679     69.92779    53.902513    28.626763            0    152.45707   -3.7954666    2191.8902    1196.6879 
  148000    977.85614    94648.792    1.1957605    78063.539    93858.485    112024.35   -4509.8856   -20489.106   -13540.758    199.70818     171.9734    371.68159    67.851582            0    67.851582    66.735773     42.72288    22.397949            0     131.8566   -3.7954666    2023.5364    1196.6879 
  149000     963.0238    85375.724    1.1957605    91432.389     88003.58    76691.202    34.710833   -5667.0089   -6158.8729    205.72538    169.36487    375.09025    53.576474            0    53.576474    58.321994     65.44725    28.379666            0    152.14891   -3.7954666    1865.1072    1196.6879 
  150000    1045.3419    87031.679    1.1957605    81013.583    90187.319    89894.136    6848.0254   -269.52896   -4258.2168    187.82568    183.84197    371.66765    56.226731            0    56.226731    57.347822    54.474905    19.776224            0    131.59895   -3.7954666    1890.5851    1196.6879 
  151000    903.48146    83756.562    1.1957605    86641.797    83920.236    80707.653    4216.6925    1585.5961   -1853.4906    198.53082    158.89329    357.42411    66.613248            0    66.613248    54.286273    52.998731    24.632568            0    131.91757   -3.7954666    1819.1827    1196.6879 
  152000    1105.8836    82508.633    1.1957605    83030.204    77933.528    86562.167   -4020.0811    7060.9535   -5854.4509    194.27541    194.48931    388.76473    70.344023            0    70.344023    56.405047     46.21087    21.315473            0    123.93139   -3.7954666    1828.7438    1196.6879 
  153000    861.89718    77366.216    1.1957605    92046.332     57830.78    82221.537   -11014.354    -3821.403    8824.5575    207.99057    151.57996    359.57052    67.798261            0    67.798261    65.303622    50.484345    24.404341            0    140.19231   -3.7954666    1709.8018    1196.6879 
  154000    1008.7957    93032.643    1.1957605    90722.742    89335.673    99039.513    13915.932     1455.584    2317.2406    221.66338    177.41468    399.07806    50.846472            0    50.846472    67.010704    76.160885    27.645319            0    170.81691   -3.7954666    2022.7271    1196.6879 
  155000    1041.9425    80633.809    1.1957605    105917.57    56864.052    79119.807   -16678.319    4966.7177   -3887.3468    211.26643    183.24412    394.51055    71.472871            0    71.472871    54.306314    56.491779    28.995464            0    139.79356   -3.7954666    1801.7694    1196.6879 
  156000    1039.3251    84194.855    1.1957605    81838.444    71079.796    99666.323   -6186.3542    19808.334   -451.69117    229.25708    182.78381    412.04089    73.477072            0    73.477072     74.43376    57.076881    24.269365            0    155.78001   -3.7954666    1881.4487    1196.6879 
  157000    935.85964    86116.296    1.1957605    95393.838    81875.714    81079.335     -657.029    6012.6045   -610.26046    208.43742    164.58757    373.02499    77.973388            0    77.973388    49.166017    51.487297    29.810713            0    130.46403   -3.7954666    1875.9667    1196.6879 
  158000    1039.7096    87738.953    1.1957605    69793.909    108663.72    84759.232     6234.196   -8145.4754    4914.1925    226.81865    182.85143    409.67008    60.176101            0    60.176101    66.088385    70.503038    30.051123            0    166.64255   -3.7954666    1940.9312    1196.6879 
  159000    884.18903     79577.21    1.1957605     86527.08     75232.14     76972.41   -10622.926    6583.8613   -4298.7038    206.22696    155.50037    361.72733      71.4073            0      71.4073    52.456938    54.643093    27.719627            0    134.81966   -3.7954666    1750.5459    1196.6879 
  160000    990.80199    84528.561    1.1957605    55894.901    103265.38    94425.399    13937.706    4106.3296     -3731.29    230.96537    174.25016    405.21553    100.55923            0    100.55923    56.225469    48.612338    25.568333            0    130.40614   -3.7954666    1880.4474    1196.6879 
  161000    894.79014    87316.715    1.1957605    78305.326     80913.75    102731.07    62.319205    3261.7238     6688.838    209.48999    157.36477    366.85476    73.967556            0    73.967556    54.356301    54.640814    26.525322            0    135.52244   -3.7954666    1890.7467    1196.6879 
  162000    951.50636     87053.16    1.1957605    90373.888    99054.039    71731.551    1185.1264   -437.29066    4130.2498     253.5124    167.33932    420.85172     82.39769            0     82.39769    59.729292    81.971942    29.413475            0    171.11471   -3.7954666     1940.144    1196.6879 
  163000    979.43891    81594.502    1.1957605    84960.205    84712.769    75110.532   -20114.561    6307.8235     5808.582    215.72117    172.25176    387.97293    84.478632            0    84.478632    43.619404    57.567542    30.055592            0    131.24254   -3.7954666    1811.9982    1196.6879 
  164000    806.43399    98774.155    1.1957605    110642.27    93560.221    92119.979     5105.464   -5826.4909   -13234.368    229.37918    141.82577    371.20494      98.6604            0      98.6604    40.122487    73.180554    17.415736            0    130.71878   -3.7954666    2095.0575    1196.6879 
  165000    947.04779    105516.85    1.1957605    97053.722    106034.87    113461.96    13093.743   -1360.2921    18888.834    262.78695     166.5552    429.34216    101.45626            0    101.45626    57.795428    73.256288    30.278974            0    161.33069   -3.7954666    2270.8714    1196.6879 
  166000    1072.4227    85584.545    1.1957605     77820.89    93722.116     85210.63    9493.1289      13717.5   -12670.741    230.41464    188.60461    419.01924    73.895987            0    73.895987    45.567429    79.747208    31.204012            0    156.51865   -3.7954666    1912.6806    1196.6879 
  167000    1066.9368    94603.993    1.1957605    93873.622    97391.912    92546.446    2208.4194   -1456.4357    5457.5109    217.15467    187.63983     404.7945    65.592224            0    65.592224     58.30847    66.543784    26.710194            0    151.56245   -3.7954666    2055.8675    1196.6879 
  168000    1090.7442    84771.579    1.1957605    92647.952    79727.577    81939.209   -2277.6848    -6780.019   -3144.4237    217.78888    191.82677    409.61565    80.662996            0    80.662996    45.948372    59.813907    31.363601            0    137.12588   -3.7954666    1889.0887    1196.6879 
  169000    1073.4615    81293.534    1.1957605    83938.091    89988.287    69954.223    15365.327    6184.6427   -4942.3849    182.23004     188.7873    371.01734    57.447248            0    57.447248    49.723598    57.966811     17.09238            0    124.78279   -3.7954666      1789.79    1196.6879 
  170000    1023.1895    91773.086    1.1957605    99207.228    78841.806    97270.224   -4137.9625    -5426.822    16393.421    190.95502    179.94609     370.9011    76.046663            0    76.046663    44.182487    50.923579    19.802286            0    114.90835   -3.7954666    1972.5678    1196.6879 
  171000    1007.3141     78268.86    1.1957605    90389.595    66793.398    77623.588   -7180.0005    2991.7009   -426.62402    212.03297    177.15411    389.18707    47.936827            0    47.936827    75.222443    64.316374    24.557324            0    164.09614   -3.7954666    1755.1717    1196.6879 
  172000     1158.513    75698.029    1.1957605    81391.317    91917.582    53785.189     3681.322    -2580.182    3389.4571    227.57477    203.74512    431.31989    75.790013            0    75.790013    55.261438    69.504728    27.018588            0    151.78475   -3.7954666    1752.4372    1196.6879 
  173000    984.17324    84166.337    1.1957605    83607.376    93042.083    75849.552   -5854.7132    6999.5034    12782.278    223.30447    173.08437    396.38885    69.509009            0    69.509009    46.162344    80.982244    26.650877            0    153.79546   -3.7954666     1865.299    1196.6879 
  174000    841.08973     84572.22    1.1957605    78140.051    65771.577    109805.03   -9630.2825    1699.9032   -3565.9898    210.86585    147.92059    358.78644     80.94119            0     80.94119    48.175578    59.886909    21.862173            0    129.92466   -3.7954666    1834.7802    1196.6879 
  175000    1052.5232    85875.678    1.1957605    84382.624    98038.007    75206.402    907.25578    4162.0638   -5871.1626    221.86338    185.10492    406.96831    75.465687            0    75.465687    56.354521    54.785384    35.257789            0    146.39769   -3.7954666    1905.7106    1196.6879 
  176000    911.89377    80243.867    1.1957605     79450.77    68465.554    92815.275   -5175.5261    1473.8732     2696.751    202.96413    160.37274    363.33687    80.103053            0    80.103053    45.955543    52.358704    24.546829            0    122.86108   -3.7954666    1763.7902    1196.6879 
  177000     1172.887    91978.826    1.1957605    101169.26    67624.451    107142.76   -7422.9824   -5387.0838   -3618.9404    244.04758    206.27305    450.32063    85.069002            0    85.069002    60.238037    69.164045    29.576498            0    158.97858   -3.7954666    2055.5779    1196.6879 
  178000    975.20049    82450.922    1.1957605    85417.751    67625.066    94309.948     4593.069    14819.993    9101.7036      195.029    171.50636    366.53536    72.435136            0    72.435136    55.719003    45.359836    21.515028            0    122.59387   -3.7954666    1805.5073    1196.6879 
  179000     944.5341     73325.15    1.1957605    95388.904    59764.756    64821.792   -17871.537    7013.2184    -4773.856    191.79118    166.11313    357.90431    86.380714            0    86.380714    37.052254    44.470567    23.887645            0    105.41047   -3.7954666     1637.609    1196.6879 
  180000    1009.8736    92623.962    1.1957605    96207.771    92601.979    89062.138   -4619.0203    3859.7774   -1592.0478    223.68768    177.60424    401.29191    102.10116            0    102.10116    40.551278    50.013583    31.021651            0    121.58651   -3.7954666    2017.8085    1196.6879 
  181000    822.08415    81956.022    1.1957605    70082.622    95131.971    80653.472   -13069.236    4558.6605     10366.25    210.89945    144.57813    355.47758    64.255351            0    64.255351    47.781337    64.730444    34.132319            0     146.6441   -3.7954666    1785.8123    1196.6879 
  182000    1011.0577    92581.319    1.1957605    83699.666    99835.719    94208.571   -8915.3395    2095.0702    4628.5741    226.07739    177.81248    403.88987    82.034801            0    82.034801    46.290335    79.464361     18.28789            0    144.04259   -3.7954666    2019.6622    1196.6879 
  183000    1040.5571     86005.56    1.1957605    87731.761    81689.616    88595.304   -8041.3363    -2615.531    15063.598    225.39151    183.00048    408.39199    79.557684            0    79.557684    51.520207    67.360613    26.953005            0    145.83382   -3.7954666    1909.4011    1196.6879 
  184000    953.31185    88910.615    1.1957605    80432.505    81679.138     104620.2    3177.2012    2871.9285    8480.5316     211.5029    167.65685    379.15975    72.980803            0    72.980803      48.4684    67.272746    22.780952            0     138.5221   -3.7954666    1930.8692    1196.6879 
  185000    1061.6696    87140.542    1.1957605    97798.623    87426.292    76196.713   -3397.2611    5368.0803    11573.153    247.42113     186.7135    434.13462    104.53165            0    104.53165    45.692476    66.583427    30.613575            0    142.88948   -3.7954666     1954.952    1196.6879 
  186000    1057.9292    78178.943    1.1957605    114612.91    60404.201     59519.72   -1483.7013   -11088.336    23390.359    227.55885    186.05568    413.61453    102.33867            0    102.33867    44.528901    52.082468    28.608815            0    125.22018   -3.7954666    1778.0299    1196.6879 
  187000    1048.7206    95793.061    1.1957605     101748.8    94142.357    91488.028   -6446.5712   -6398.8676    1860.0876    262.87076    184.43617    447.30693     93.11425            0     93.11425    61.599735    80.636123    27.520651            0    169.75651   -3.7954666    2119.1321    1196.6879 
  188000    1027.8149    92839.867    1.1957605    105913.68    80839.343    91766.572   -5150.5632   -7221.8192   -6149.0272    195.15622    180.75954    375.91576    75.347817            0    75.347817    55.689139    35.055111    29.064154            0     119.8084   -3.7954666    1996.2004    1196.6879 
  189000     991.3822    87893.792    1.1957605    98278.395    67089.334    98313.648    -3857.307    11094.547    5352.7441    205.69208     174.3522    380.04428    72.984046            0    72.984046     50.36166    61.176331    21.170044            0    132.70803   -3.7954666    1914.0077    1196.6879 
  190000    913.16069    102915.63    1.1957605    94086.001    95232.382     119428.5    10609.819     648.4653    8523.6527    234.29834    160.59556    394.89389    91.193168            0    91.193168    55.867258    59.114066    28.123843            0    143.10517   -3.7954666    2191.0254    1196.6879 
  191000    1019.4023    74123.297    1.1957605    65944.411    77843.645    78581.834    2903.6059   -1744.0235   -3983.2917    266.49365    179.28003    445.77368    79.502396            0    79.502396    35.941201    113.66867    37.381385            0    186.99126   -3.7954666     1739.408    1196.6879 
  192000    1129.9152    92536.506    1.1957605    102467.56    79986.241    95155.712     1277.616   -18973.421   -6026.0675     200.0069    198.71569    398.72259    71.859692            0    71.859692    48.373803    52.537092    27.236312            0    128.14721   -3.7954666    2013.7128    1196.6879 
  193000    1079.3829    93059.243    1.1957605    109690.55    72131.079    97356.096   -6553.9178   -2182.9937   -2093.6092    175.75021    189.82868    365.57889    71.642485            0    71.642485    48.458256    29.122119    26.527351            0    104.10773   -3.7954666    1989.6922    1196.6879 
  194000    1120.5142    87148.662    1.1957605    87834.765    96872.597    76738.625    906.41969   -4410.0516    14059.321    213.07348    197.06237    410.13585    66.297731            0    66.297731    63.316945    59.241343    24.217461            0    146.77575   -3.7954666    1931.0949    1196.6879 
  195000    941.98698     75638.34    1.1957605    87446.501    73492.011    65976.509    2950.1458   -25.177322    15576.519    194.76803    165.66517     360.4332    85.968701            0    85.968701    40.271509    48.068634    20.459184            0    108.79933   -3.7954666    1680.5088    1196.6879 
  196000    1096.4125    99021.241    1.1957605    107923.77    86892.671    102247.28   -8486.8627   -8028.6244   -6983.0956    241.91519    192.82364    434.73884    93.400586            0    93.400586    68.491974    54.514088    25.508544            0    148.51461   -3.7954666    2162.9037    1196.6879 
  197000    914.95275    97099.467    1.1957605    111272.02    95095.609    84930.768    3193.2458    9706.2285   -26093.475    213.75069    160.91072    374.66141    80.605502            0    80.605502     63.71535    44.216559    25.213274            0    133.14518   -3.7954666    2069.2865    1196.6879 
  198000    1106.6004     74273.59    1.1957605    85275.782    70693.527    66851.461   -10243.887   -9917.4383    6716.0508    194.77646    194.61538    389.39183    63.983057            0    63.983057     50.95315      61.5311    18.309151            0     130.7934   -3.7954666    1685.6491    1196.6879 
  199000    1120.7829     99672.02    1.1957605    102774.94     107259.1    88982.021   -3293.7923   -1339.4644    3648.6225    216.87687    197.10961    413.98649     78.24393            0     78.24393    65.893498    42.951556    29.787887            0    138.63294   -3.7954666     2153.509    1196.6879 
  200000    905.82057     80416.11    1.1957605    68853.609    90232.026    82162.694    1822.4181   -1743.3677   -423.57157    215.00501    159.30466    374.30968    56.427264            0    56.427264    57.571347    67.903872    33.102532            0    158.57775   -3.7954666    1777.7691    1196.6879 
  201000    1083.5238    92083.895    1.1957605    72239.657    105285.22    98726.809   -5378.5967   -58.765573   -9475.3563    236.77156    190.55693    427.32849     70.92711            0     70.92711    77.352019    61.968963    26.523467            0    165.84445   -3.7954666    2034.4195    1196.6879 
  202000     987.4768    95566.357    1.1957605    86231.982    116002.53    84464.559    7640.9262   -2224.2479   -10046.847    197.82151    173.66537    371.48687    60.066476            0    60.066476    70.109005    40.384218    27.261811            0    137.75503   -3.7954666    2039.3555    1196.6879 
  203000    847.57191     85122.17    1.1957605    90694.181     74400.45     90271.88   -9965.4701     4609.375   -2052.6945    229.28699     149.0606    378.34759    76.575075            0    76.575075    69.732058    58.802488    24.177366            0    152.71191   -3.7954666    1863.9394    1196.6879 
  204000    1201.5157    73956.073    1.1957605    79783.507     84334.53    57750.181    3251.4482    9906.2974    1640.1064    204.76497    211.30792    416.07289    73.771413            0    73.771413    58.680975    45.200551    27.112027            0    130.99355   -3.7954666    1706.7887    1196.6879 
  205000    1148.5629    85924.831    1.1957605    96657.203    80340.748    80776.541    11494.099    2515.3537   -10519.862    212.11984    201.99522    414.11506    53.266725            0    53.266725    60.219615    68.604799      30.0287            0    158.85312   -3.7954666    1913.7152    1196.6879 
  206000    857.75321    82569.021    1.1957605    90300.023    67749.255    89657.784    10417.049    6895.0294    8629.7735    223.53351    150.85116    374.38467    86.114028            0    86.114028    71.721991    40.931136    24.766355            0    137.41948   -3.7954666    1815.4177    1196.6879 
  207000    964.48072    99126.845    1.1957605    107843.33    113196.95    76340.253    2255.6617   -7829.3925    6001.2705    243.55901     169.6211    413.18011    82.326033            0    82.326033    87.757961    51.334433    22.140587            0    161.23298   -3.7954666     2143.188    1196.6879 
  208000    895.00798    90825.987    1.1957605    91122.886     97820.23    83534.844    188.53807    1219.5414    15701.433    219.66648    157.40308    377.06956    74.859057            0    74.859057    70.398613    46.153885     28.25493            0    144.80743   -3.7954666     1962.207    1196.6879 
  209000    1079.2539      80194.6    1.1957605    99042.345     69263.62    72277.836     882.2333    1643.6186   -6719.4497     250.4007      189.806     440.2067    104.61544            0    104.61544    74.283586    55.937087     15.56459            0    145.78526   -3.7954666    1839.8002    1196.6879 
  210000    934.05784    85951.102    1.1957605    92493.345    87861.269    77498.693   -1248.1805    13166.281   -7256.5933    238.09664    164.27069    402.36733    83.548202            0    83.548202    71.028984    60.645834    22.873621            0    154.54844   -3.7954666     1902.426    1196.6879 
  211000    882.22955     83413.43    1.1957605      83471.8     68506.82     98261.67   -7734.2341     5014.121   -2582.2205    205.37455    155.15576    360.53032    78.747448            0    78.747448    41.228988    56.299491    29.098625            0     126.6271   -3.7954666    1816.3004    1196.6879 
  212000     947.9333    77501.144    1.1957605    84214.595     82792.49    65496.348   -5615.0692   -2273.8714    4688.6802    220.30602    166.71094    387.01695    88.728136            0    88.728136    46.324574    50.861795    34.391511            0    131.57788   -3.7954666     1739.603    1196.6879 
  213000    1072.5387    101765.76    1.1957605    104837.98    109930.69    90528.606   -6913.1879    6004.6838    5577.4737    199.80908    188.62501    388.43409     74.78861            0     74.78861    51.544878    51.929085    21.546509            0    125.02047   -3.7954666    2164.4975    1196.6879 
  214000    914.46416    94095.008    1.1957605    78425.241    83587.253    120272.53    5736.9061   -8517.1071   -7026.0756     261.9698    160.82479    422.79459    105.59393            0    105.59393    60.545364    69.834974    25.995528            0    156.37587   -3.7954666    2064.9845    1196.6879 
  215000    1030.1403    86666.271    1.1957605    96793.257    91832.947    71372.609    3591.5457    2210.6659    13765.869    189.90998    181.16849    371.07847    57.484571            0    57.484571    55.276385    46.041851    31.107169            0     132.4254   -3.7954666    1883.6186    1196.6879 
  216000    893.27072    93096.519    1.1957605    85199.775    95198.047    98891.735     1321.715   -5994.0659    2793.3538    235.25038    157.09755    392.34793    79.102446            0    79.102446     52.98024    74.757661    28.410028            0    156.14793   -3.7954666    2017.1117    1196.6879 
  217000    1124.6664    92357.935    1.1957605    84391.763    95119.475    97562.566   -13008.021   -867.49064   -146.02545    225.93496     197.7926    423.72756    91.767507            0    91.767507    68.534032    42.275747    23.357679            0    134.16746   -3.7954666    2035.6013    1196.6879 
  218000    1071.3568    82942.588    1.1957605     71022.09    86258.356    91547.318    9295.1173    -123.8632    14901.281      210.221    188.41715    398.63815    73.173423            0    73.173423    55.079198    51.060817    30.907557            0    137.04757   -3.7954666    1846.1908    1196.6879 
  219000    996.81726    78269.039    1.1957605    74321.546    83715.561    76770.012    279.79122    -8190.607   -6971.0188    194.91411    175.30805    370.22216    78.249124            0    78.249124     34.41276    60.936347    21.315881            0    116.66499   -3.7954666    1736.2099    1196.6879 
  220000    850.06512    89929.149    1.1957605    96658.577    92481.749     80647.12    12775.889    1194.5655   -16536.302    193.01013    149.49908    342.50921    53.766595            0    53.766595    52.561359    61.620274    25.061904            0    139.24354   -3.7954666    1911.9946    1196.6879 
  221000    1084.0199    93130.257    1.1957605    82520.258    111478.27     85392.24   -16213.539   -8565.2799   -10089.002    234.83124    190.64419    425.47543    80.591246            0    80.591246    73.126475    49.023849    32.089674            0       154.24   -3.7954666    2050.8281    1196.6879 
  222000    1020.0481    90701.861    1.1957605    81049.128    120755.62    70300.839   -2295.4384   -1602.2624    3177.3934    237.79899     179.3936    417.19259    106.73274            0    106.73274     54.04908    43.169297    33.847872            0    131.06625   -3.7954666    2000.1637    1196.6879 
  223000    1015.5128    83478.141    1.1957605    89848.085    78394.735    82191.604    224.53438   -12618.236   -2060.8257    217.86994    178.59599    396.46593    79.353544            0    79.353544    47.278027     63.65558    27.582787            0    138.51639   -3.7954666    1853.3653    1196.6879 
  224000    992.45397    94375.835    1.1957605    84047.371    108998.56    90081.573   -9972.7451    7124.9843    3311.3074    229.99332    174.54069    404.53401    82.673419            0    82.673419    55.349241    68.468591     23.50207            0     147.3199   -3.7954666     2051.625    1196.6879 
  225000    964.36698    95899.671    1.1957605      97461.6    107178.05     83059.36   -8565.9609    15688.297    9169.5194    225.62475    169.60109    395.22585    81.320393            0    81.320393    61.510281    63.820713    18.973367            0    144.30436   -3.7954666    2068.9116    1196.6879 
  226000    881.72578    81429.552    1.1957605    79072.642    87542.055    77673.958    1526.3989   -19886.935   -967.37014    192.49531    155.06717    347.56248     88.58377            0     88.58377    41.280675    35.785553    26.845316            0    103.91154   -3.7954666     1768.709    1196.6879 
  227000    1066.1596    96367.751    1.1957605     103812.2    100313.13    84977.926   -1756.4856    -832.3247   -3578.7265    234.66545    187.50314    422.16859    95.746458            0    95.746458    44.139067    69.590129    25.189794            0    138.91899   -3.7954666    2104.0235    1196.6879 
  228000    1009.9869     91056.21    1.1957605     82717.08    102499.74    87951.812   -12590.435    3109.5434   -2949.5935    186.08673    177.62417    363.71091    76.060619            0    76.060619    39.496291     41.94068    28.589142            0    110.02611   -3.7954666    1952.8663    1196.6879 
  229000     972.0604    90778.964    1.1957605    94078.708     104248.9    74009.289     1568.746   -1968.5196    30.138852    201.22674    170.95412    372.18086    67.111481            0    67.111481    54.031866    45.617031    34.466367            0    134.11526   -3.7954666    1956.4976    1196.6879 
  230000    1171.8929    98740.727    1.1957605    104965.47       105369    85887.708    3158.1323    3912.7161    956.81104    207.46321    206.09822    413.56143    75.595033            0    75.595033    62.825858    41.773377    27.268943            0    131.86818   -3.7954666    2136.8306    1196.6879 
  231000    1062.1061    89680.476    1.1957605     103650.2    76242.202    89149.027    1513.3669    15405.597    9489.3781    230.53681    186.79025    417.32707    84.064929            0    84.064929    51.454204    75.627064    19.390615            0    146.47188   -3.7954666    1982.4725    1196.6879 
  232000    920.28797    84719.892    1.1957605    60880.901    86530.585    106748.19    12074.232   -22378.643   -9698.8608    226.70938    161.84901     388.5584     89.43831            0     89.43831    54.967912    58.325513    23.977646            0    137.27107   -3.7954666    1867.1294    1196.6879 
[...]
 1941000     370.2268   -3471.4204    0.5782586   -3765.5973   -1168.4516   -5480.2124   -2558.1099    1801.4437   -1621.0825   -2.5378548     65.11097    62.573116   -53.473762            0   -53.473762    15.681783    26.062813    9.1913111            0    50.935907   -1.8354522   -62.708146    2474.5886 
 1942000    355.80523    2298.1054    0.5782586     3423.694    844.58828    2626.0339   -1592.2117     1340.951   -843.39814   -13.056881     62.57468    49.517799   -55.332269            0   -55.332269     11.78268    23.451661    7.0410466            0    42.275388   -1.8354522     132.4549    2474.5886 
 1943000    340.01067    675.43585    0.5782586    2081.8362   -2600.8819    2545.3532   -935.90387   -1254.1865    450.28759   -3.8525227    59.796925    55.944403   -52.135955            0   -52.135955    20.525106    16.029945    11.728381            0    48.283432   -1.8354522    80.320435    2474.5886 
 1944000    404.92014    1158.7911    0.5782586    2170.5571    1391.5918   -85.775564    1242.0173   -204.56532    501.59659   0.90648907    71.212411      72.1189    -52.72415            0    -52.72415    14.438838    24.502638    14.689163            0    53.630639   -1.8354522     113.9389    2474.5886 
 1945000    443.27204   -1075.9308    0.5782586   -298.94375   -3841.4438     912.5951    1818.1572    -137.6361   -1018.5744   -8.0478923    77.957276    69.909383   -58.663558            0   -58.663558    20.668701    20.187393    9.7595722            0    50.615666   -1.8354522    31.079753    2474.5886 
 1946000    323.15022    843.67505    0.5782586    2976.8372    1651.1137   -2096.9257   -2308.6925   -881.91824    4069.2388    5.8479663    56.831716    62.679682   -50.882554            0   -50.882554    20.295436    21.029974    15.405111            0     56.73052   -1.8354522    93.127355    2474.5886 
 1947000    386.35277     2616.305    0.5782586     2132.232    6116.1199   -399.43698    2266.2289    3339.3108   -416.17199    -8.977783    67.947008    58.969225   -54.444173            0   -54.444173    14.849683    20.833994    9.7827136            0     45.46639   -1.8354522    153.38994    2474.5886 
 1948000    391.72066    4217.5881    0.5782586    7313.3355    4193.8302    1145.5985    1382.4005   -3693.2093   -2562.3376   -6.2046621    68.891049    62.686387   -54.080757            0   -54.080757    14.907917    15.677123    17.291056            0    47.876095   -1.8354522    214.89634    2474.5886 
 1949000    436.47985   -1708.6998    0.5782586   -2493.6026   -4974.7054    2342.2087   -3345.9038     214.1857   -2398.7502   0.94153401    76.762747    77.704281   -50.224944            0   -50.224944    19.050891    21.563338    10.552249            0    51.166478   -1.8354522     16.03844    2474.5886 
 1950000    396.88628   -4323.5415    0.5782586   -3157.5736   -1506.3748   -8306.6763    3089.1844   -3890.5869   -379.65149   -8.3321158    69.799514    61.467398   -54.773452            0   -54.773452      18.7973    15.439356    12.204681            0    46.441336   -1.8354522   -94.566349    2474.5886 
 1951000    386.48656    -2221.816    0.5782586   -311.56835    -5564.101   -789.77877    162.13083   -1024.0993    4401.4441   -2.5513487    67.970538    65.419189   -54.330228            0   -54.330228    16.506771    23.456502    11.815607            0     51.77888   -1.8354522   -14.764678    2474.5886 
 1952000    366.35206   -3596.0202    0.5782586   -3073.7054   -4183.6506   -3530.7046     306.2721   -308.66115     292.1224   -16.348242    64.429529    48.081287   -54.332059            0   -54.332059    20.878084    10.192581    6.9131519            0    37.983817   -1.8354522   -81.696699    2474.5886 
 1953000    380.71092   -762.51565    0.5782586   -1120.3608    3236.6701   -4403.8562    -1127.666    2400.0457   -2142.7768   -5.6423607    66.954789    61.312428   -52.219814            0   -52.219814     17.10402    17.050085    12.423348            0    46.577453   -1.8354522    33.793744    2474.5886 
 1954000     383.1191    448.47798    0.5782586   -133.73104    3929.8916   -2450.7267    2236.8186    416.13629   -1439.4671   -6.5258289    67.378311    60.852482   -55.417465            0   -55.417465    22.005593    13.964492    12.921552            0    48.891636   -1.8354522    77.037755    2474.5886 
 1955000     358.7402    2712.4636    0.5782586    3709.5802    580.83295    3846.9775   -3701.2313     3823.564    650.52282   -8.8210421    63.090847    54.269805   -48.289208            0   -48.289208    16.398953     17.88642    5.1827932            0    39.468166   -1.8354522    152.16082    2474.5886 
 1956000    370.34753    402.33171    0.5782586    2199.6857    2197.4254    -3190.116   -3829.2089    495.58179    4905.4619   -0.7462708    65.132202    64.385931   -52.082827            0   -52.082827    20.832335    21.745077    8.7591445            0    51.336556   -1.8354522    78.905816    2474.5886 
 1957000    404.48967   -3308.4524    0.5782586   -4378.5211     -6270.46    723.62392    1425.0808    5810.3612    110.13934   -14.305312    71.136706    56.831394   -53.707349            0   -53.707349    18.378378    13.662911    7.3607486            0    39.402037   -1.8354522   -62.568459    2474.5886 
 1958000    404.79082     1525.861    0.5782586   -753.54756    2422.8502    2908.2802   -3089.6611   -2431.9638   -1102.2446   -7.1306106    71.189667    64.059057   -55.114296            0   -55.114296     20.39672    16.330722    11.256243            0    47.983685   -1.8354522    119.12637    2474.5886 
 1959000     470.3294    93.621113    0.5782586    1237.9211     307.4924   -1264.5502    448.89654    700.63272   -1536.3511   -10.350219    82.715794    72.365576   -53.508088            0   -53.508088    20.146228     15.40794     7.603701            0     43.15787   -1.8354522      75.7443    2474.5886 
 1960000     321.8812   -3503.4297    0.5782586   -3599.8974    -4932.491   -1977.9006   -1125.7384    214.06196   -845.23583    1.2718551    56.608536    57.880391   -43.622284            0   -43.622284    17.220973    19.097996    8.5751699            0    44.894139   -1.8354522   -68.556062    2474.5886 
 1961000    419.11647   -2681.0559    0.5782586   -977.87944   -5457.8742    -1607.414   -3602.5032     3633.736    848.34019   -11.623047    73.709089    62.086042   -54.797434            0   -54.797434    15.182899    16.814578     11.17691            0    43.174387   -1.8354522   -34.671487    2474.5886 
 1962000    380.40862    2927.3656    0.5782586    329.90801    3962.3415    4489.8474   -401.53637   -3235.1698    4259.2948    -2.818949    66.901625    64.082676   -53.322056            0   -53.322056    18.143356    19.985015    12.374736            0    50.503107   -1.8354522    169.72936    2474.5886 
 1963000    329.96294   -1383.1808    0.5782586   -4028.9784    2213.3245   -2333.8885    2278.4063    449.77588   -2428.5783    4.0065538    58.029855    62.036409   -49.679021            0   -49.679021     20.40172    20.413085    12.870769            0    53.685575   -1.8354522    12.118331    2474.5886 
 1964000    362.01124    1855.0758    0.5782586    4082.3201    3097.6908   -1614.7836    2308.2257   -188.27514   -624.35686   -15.513322    63.666118    48.152796   -53.145174            0   -53.145174    10.826005    16.615504    10.190343            0    37.631852   -1.8354522    115.10125    2474.5886 
 1965000    373.46468    1029.8621    0.5782586   -912.56001    3027.2146    974.93157     1296.627    4489.3131    1095.6729    -4.560588    65.680409    61.119821    -49.56863            0    -49.56863    13.906658    16.142602    14.958782            0    45.008042   -1.8354522     98.28686    2474.5886 
 1966000    335.65574    -179.0352    0.5782586    4764.5223   -889.95067   -4411.6772    5253.2452   -301.56288    2654.6233   -7.0627066    59.031034    51.968327   -52.165684            0   -52.165684    28.748507    8.3069386    8.0475318            0    45.102977   -1.8354522    45.507066    2474.5886 
 1967000    322.97453   -751.51466    0.5782586    1423.5963    1241.8805   -4920.0208   -1810.3298    2323.0814    2290.4743   -1.9826356    56.800817    54.818182   -52.915883            0   -52.915883    23.111822    18.733002     9.088424            0    50.933248   -1.8354522    27.696516    2474.5886 
 1968000    311.08034     3550.443    0.5782586    708.58819    4855.2418    5087.4989    170.24482   -332.58678    2678.1124   -3.9751065    54.709013    50.733907   -51.468315            0   -51.468315    13.713736    15.140647    18.638825            0    47.493208   -1.8354522    178.86704    2474.5886 
 1969000    372.65864   -1622.1983    0.5782586   -922.80005   -1951.0721   -1992.7228   -183.26486   -3225.6045   -4699.5649   -6.7400958    65.538653    58.798557   -53.990692            0   -53.990692    18.495164    17.856934    10.898498            0    47.250596   -1.8354522   0.25449578    2474.5886 
 1970000    316.23665   -3516.5796    0.5782586     3607.356   -4905.3404   -9251.7543   -4111.3226    448.70171     574.4634    8.2502848    55.615841    63.866126   -47.020394            0   -47.020394     18.30877     19.89669    17.065219            0    55.270679   -1.8354522   -63.044899    2474.5886 
 1971000     407.9755    1323.8957    0.5782586    775.57284    5889.9682   -2693.8539   -3811.3206    -729.3022   -795.08532   -2.8399055     71.74975    68.909845    -52.54112            0    -52.54112    19.716171    18.556699    11.428343            0    49.701214   -1.8354522    116.68836    2474.5886 
 1972000    409.96705    448.34677    0.5782586    660.18528   -3288.2099    3973.0649   -1594.2763    2517.4829   -4437.1999    11.797186         72.1    83.897185   -53.256848            0   -53.256848    25.556701     22.00321    17.494122            0    65.054033   -1.8354522    100.07772    2474.5886 
 1973000    402.04647    2037.7694    0.5782586    7243.6227   -1321.0778    190.76311    -3270.392   -1070.1651   -533.16796   -3.2304319    70.707025    67.476594   -55.594472            0   -55.594472    18.431205    17.984826     15.94801            0     52.36404   -1.8354522    141.01834    2474.5886 
 1974000     417.4752    3466.3522    0.5782586   -2064.1143    9932.7691    2530.4017   -1447.6064   -889.75336   -2193.6826   -2.8805076    73.420443    70.539935   -54.404928            0   -54.404928    21.823426    16.380364    13.320631            0    51.524421   -1.8354522    195.63829    2474.5886 
 1975000    442.29266   -3145.5981    0.5782586   -735.47828   -5711.6548   -2989.6613    469.02764    756.75448     1497.857   -3.4492441    77.785033    74.335789   -52.131109            0   -52.131109    19.526567    18.979785    10.175512            0    48.681864   -1.8354522   -39.186761    2474.5886 
 1976000    325.49939    643.30364    0.5782586    1423.9959   -256.10504    762.02008   -356.22867   -926.19002    2289.3538   -8.6996689    57.244859     48.54519   -51.957248            0   -51.957248    12.679884    18.459149    12.118546            0     43.25758   -1.8354522    71.761591    2474.5886 
 1977000     375.7548    1197.6773    0.5782586    4113.9444    126.19748   -647.10987    552.04473    1020.3015    5660.6704    -8.367781    66.083168    57.715387   -53.183607            0   -53.183607    20.046516    18.735256    6.0340533            0    44.815826   -1.8354522    100.93877    2474.5886 
 1978000    334.72486   -126.73411    0.5782586   -2178.5093   -4264.5637    6062.8706    2179.7416    617.96076   -1341.6838   -9.2586207    58.867323    49.608702   -52.318094            0   -52.318094    16.885957    17.461972    8.7115438            0    43.059473   -1.8354522    45.034952    2474.5886 
 1979000     359.8016    2307.2988    0.5782586    6764.6676     537.5407   -380.31188    2038.5059   -4322.6769    3112.9919   -6.4826348    63.277513    56.794878   -54.877267            0   -54.877267    23.902132    16.069461    8.4230394            0    48.394632   -1.8354522    140.06376    2474.5886 
 1980000    322.34827   -2699.8293    0.5782586    170.70791   -5078.5888   -3191.6069   -1311.9834   -1676.0183    4863.7807   -8.8546484    56.690678     47.83603   -54.921771            0   -54.921771     20.60599    12.378169    13.082964            0    46.067123   -1.8354522   -49.599018    2474.5886 
 1981000     283.1463   -6152.4075    0.5782586   -4290.9984   -11932.627    -2233.597    2462.8187    156.50158    757.70087    -11.50013    49.796315    38.296185   -52.392915            0   -52.392915    16.668206    15.266817    8.9577623            0    40.892785   -1.8354522   -183.74012    2474.5886 
 1982000    365.74987   -1488.9558    0.5782586   -579.51958   -982.48848   -2904.8594    -6495.447    361.36897   -1440.4914   -13.685604    64.323623    50.638019   -57.080597            0   -57.080597    16.448677    18.653854    8.2924622            0    43.394993   -1.8354522   -3.0974102    2474.5886 
 1983000     351.4394   -423.45915    0.5782586   -4564.3387    2104.9023     1189.059   -479.21143   -1313.6526    2489.1816   -10.883319    61.806871    50.923552   -54.246567            0   -54.246567    16.929359    16.523614     9.910274            0    43.363248   -1.8354522    35.641192    2474.5886 
 1984000    458.77218   -1319.8977    0.5782586   -6260.9951   -413.01274    2714.3147   -1858.8992   -283.56633    -1434.746   0.86496036    80.683251    81.548212   -53.274926            0   -53.274926    26.909127    13.481122    13.749637            0    54.139886   -1.8354522    33.913979    2474.5886 
 1985000    520.06557   -572.87644    0.5782586   -695.69758   -2669.7527     1646.821    1472.3954     2664.491   -993.06788   0.40213029    91.462784    91.864914   -50.225787            0   -50.225787    20.631883     18.00321    11.992824            0    50.627917   -1.8354522    71.190183    2474.5886 
 1986000    343.50129   -1470.9567    0.5782586   -358.43465   -499.80068   -3554.6347   -3277.1631    3843.2098    722.65069    3.9621209    60.410813    64.372934   -50.808316            0   -50.808316      18.7218    18.300286    17.748351            0    54.770437   -1.8354522    11.287084    2474.5886 
 1987000    391.25359   -3563.9406    0.5782586    -3389.906   -1465.5286   -5836.3872    3936.9961   -858.22126    913.42164   -1.7159053    68.808905       67.093   -55.713938            0   -55.713938    22.383433    18.989945    12.624655            0    53.998033   -1.8354522   -61.527254    2474.5886 
 1988000    328.82849   -2131.9236    0.5782586   -653.83089   -3668.8142   -2073.1257   -439.83938    -973.7462   -782.72228   -14.251624     57.83034    43.578716    -52.80516            0    -52.80516    16.228736    15.579882     6.744918            0    38.553536   -1.8354522   -33.360993    2474.5886 
 1989000    435.54751    -292.3005    0.5782586   -1540.3187    3243.8966   -2580.4794   -4078.1534   -765.60621   -970.41502 -0.064244016    76.598779    76.534535   -52.895348            0   -52.895348    13.039563    28.511144    11.280396            0    52.831104   -1.8354522    65.985603    2474.5886 
 1990000    376.48154   -3663.6155    0.5782586   -4103.8612   -3830.5137   -3056.4715     263.2858   -440.36998   -4601.1553    3.1180642    66.210977    69.329041    -50.60701            0    -50.60701    22.692776    18.873587    12.158711            0    53.725074   -1.8354522   -62.888412    2474.5886 
 1991000    424.88512   -1364.2693    0.5782586    -310.8781   -5542.0421    1760.1123   -2150.1778    2028.0884    2437.5791    -3.057029    74.723608    71.666579   -53.635369            0   -53.635369    19.553978    15.036679    15.987682            0     50.57834   -1.8354522    22.431005    2474.5886 
 1992000    349.59262     3533.373    0.5782586     5172.029    5541.1039   -113.01396   -1196.1585     79.24267   -582.01817   -5.5140148    61.482082    55.968067   -56.328681            0   -56.328681    12.836261    22.608078    15.370326            0    50.814666   -1.8354522    183.48516    2474.5886 
 1993000    415.64401    6923.0867    0.5782586    5243.3573    5704.9702    9820.9326    923.14708    170.70291   -1773.5608   -10.475745    73.098395    62.622651   -54.139408            0   -54.139408    18.111446    13.031177    12.521041            0    43.663664   -1.8354522    312.47226    2474.5886 
 1994000    434.50738   -1141.3147    0.5782586   -1094.2213    166.16231   -2495.8851    2926.7319    1594.0008   -1798.8838    -4.673116    76.415855    71.742739   -54.263897            0   -54.263897    23.108606    16.237494    10.244681            0    49.590781   -1.8354522    30.553449    2474.5886 
 1995000     430.5793   -581.46934    0.5782586   -4999.0071   -430.69295     3685.292    1094.3233   -3228.1647   -1406.3637   -13.286239     75.72503    62.438791   -57.290685            0   -57.290685    16.839545    16.069775    11.095125            0    44.004446   -1.8354522    41.453948    2474.5886 
 1996000    342.83158    -2454.643    0.5782586   -4265.9438   -1591.4198   -1506.5653    -1541.576    859.78825    2256.0292   0.42613057    60.293034    60.719164   -50.777513            0   -50.777513    27.016828    15.154545    9.0322703            0    51.203643   -1.8354522   -27.867273    2474.5886 
 1997000    344.79727   -498.80059    0.5782586   -5889.2551   -663.23561     5056.089    1035.2715   -427.20249   -1419.7523   -5.5744383    60.638734    55.064296   -56.517784            0   -56.517784    17.384734    24.869034    8.6895775            0    50.943345   -1.8354522    37.062914    2474.5886 
 1998000    373.77464    1756.9552    0.5782586    2558.9376    2857.6998   -145.77174    2203.2892   -325.94433    -4884.983   -3.3645347    65.734922    62.370387   -52.790921            0   -52.790921    23.013527     17.05597      9.35689            0    49.426386   -1.8354522    125.77774    2474.5886 
 1999000    368.55958    2152.7808    0.5782586    1491.4329    3109.3668    1857.5425     -820.938    467.73335    3277.5676   -3.3978569     64.81776    61.419903   -55.036576            0   -55.036576    20.371527    18.466996    12.800195            0    51.638719   -1.8354522    139.11233    2474.5886 
 2000000    408.45614   -2785.7721    0.5782586   -4070.1758   -1569.4564   -2717.6841   -3073.1694   -3927.9861    1580.1495    -5.333093    71.834281    66.501188   -54.368474            0   -54.368474    15.928333    22.397688     10.70936            0    49.035381   -1.8354522    -34.03548    2474.5886 
Loop time of 24.1961 on 112 procs for 250000 steps with 60 atoms

Performance: 892.704 ns/day, 0.027 hours/ns, 10332.223 timesteps/s
99.8% CPU use with 112 MPI tasks x no OpenMP threads

MPI task timing breakdown:
Section |  min time  |  avg time  |  max time  |%varavg| %total
---------------------------------------------------------------
Pair    | 0.11696    | 0.34135    | 0.61513    |  18.4 |  1.41
Bond    | 0.024973   | 0.035592   | 0.05289    |   3.1 |  0.15
Neigh   | 0.13013    | 0.13324    | 0.13662    |   0.4 |  0.55
Comm    | 19.845     | 20.278     | 20.631     |   3.9 | 83.80
Output  | 0.027565   | 0.027988   | 0.028108   |   0.0 |  0.12
Modify  | 0.091966   | 0.098503   | 0.11022    |   1.1 |  0.41
Other   |            | 3.282      |            |       | 13.56

Nlocal:       0.535714 ave           4 max           0 min
Histogram: 70 0 27 0 0 13 0 1 0 1
Nghost:        1012.84 ave        1103 max         941 min
Histogram: 4 12 16 22 15 15 13 5 7 3
Neighs:        110.241 ave         690 max           0 min
Histogram: 70 5 10 10 3 2 6 3 1 2

Total # of neighbors = 12347
Ave neighs/atom = 205.78333
Ave special neighs/atom = 4.3333333
Neighbor list builds = 2274
Dangerous builds = 0
System init for write_restart ...
WARNING: Proc sub-domain size < neighbor skin, could lead to lost atoms (../domain.cpp:964)
Total wall time: 0:04:03
