LAMMPS 2005 data file for BlendAA

   1973 atoms
   1963 bonds
   3906 angles
   5769 dihedrals

   4 atom types
   7 bond types
  15 angle types
  20 dihedral types

     0.000000000    24.769500000 xlo xhi
     0.000000000    24.769500000 ylo yhi
     0.000000000    24.769500000 zlo zhi

Masses

   1  12.011150  # c3
   2  12.011150  # c2
   3  12.011150  # c1
   4   1.007970  # h

Pair Coeffs

   1   0.0660000000   3.5000000000   # c3
   2   0.0660000000   3.5000000000   # c2
   3   0.0660000000   3.5000000000   # c1
   4   0.0300000000   2.5000000000   # h

Bond Coeffs

  1   268.0000     1.5290     # c3-c2 
  2   340.0000     1.0900     # c3-h 
  3   268.0000     1.5290     # c2-c2 
  4   340.0000     1.0900     # c2-h 
  5   268.0000     1.5290     # c2-c1 
  6   268.0000     1.5290     # c3-c1 
  7   340.0000     1.0900     # c1-h 

Angle Coeffs

  1    37.5000   110.7000    # c2-c3-h
  2    33.0000   107.8000    # h-c3-h
  3    58.3500   112.7000    # c3-c2-c2
  4    37.5000   110.7000    # c2-c2-h
  5    37.5000   110.7000    # c3-c2-h
  6    33.0000   107.8000    # h-c2-h
  7    58.3500   112.7000    # c2-c2-c2
  8    58.3500   112.7000    # c2-c2-c1
  9    37.5000   110.7000    # c1-c2-h
 10    58.3500   112.7000    # c2-c1-c2
 11    58.3500   112.7000    # c3-c1-c2
 12    37.5000   110.7000    # c2-c1-h
 13    37.5000   110.7000    # c3-c1-h
 14    58.3500   112.7000    # c1-c2-c1
 15    37.5000   110.7000    # c1-c3-h

Dihedral Coeffs

  1     0.0000     0.0000     0.3000     0.0000     # h-c3-c2-c2
  2     0.0000     0.0000     0.3000     0.0000     # h-c3-c2-h
  3     1.3000    -0.0500     0.2000     0.0000     # c3-c2-c2-c2
  4     0.0000     0.0000     0.3000     0.0000     # c3-c2-c2-h
  5     0.0000     0.0000     0.3000     0.0000     # c2-c2-c2-h
  6     0.0000     0.0000     0.3000     0.0000     # h-c2-c2-h
  7     1.3000    -0.0500     0.2000     0.0000     # c2-c2-c2-c2
  8     1.3000    -0.0500     0.2000     0.0000     # c2-c2-c2-c1
  9     0.0000     0.0000     0.3000     0.0000     # c1-c2-c2-h
 10     1.3000    -0.0500     0.2000     0.0000     # c2-c2-c1-c2
 11     1.3000    -0.0500     0.2000     0.0000     # c2-c2-c1-c3
 12     0.0000     0.0000     0.3000     0.0000     # c2-c2-c1-h
 13     0.0000     0.0000     0.3000     0.0000     # h-c2-c1-c2
 14     0.0000     0.0000     0.3000     0.0000     # h-c2-c1-c3
 15     0.0000     0.0000     0.3000     0.0000     # h-c2-c1-h
 16     1.3000    -0.0500     0.2000     0.0000     # c1-c2-c1-c2
 17     1.3000    -0.0500     0.2000     0.0000     # c1-c2-c1-c3
 18     0.0000     0.0000     0.3000     0.0000     # c1-c2-c1-h
 19     0.0000     0.0000     0.3000     0.0000     # h-c3-c1-c2
 20     0.0000     0.0000     0.3000     0.0000     # h-c3-c1-h

Atoms

      1      0   1 -0.300000    -2.806046922    10.969935284     9.845276873     # c3
      2      0   2 -0.200000    -3.084153270    12.436059009     9.532965245     # c2
      3      0   2 -0.200000    -3.446802814    12.585743246     8.061971390     # c2
      4      0   2 -0.200000    -3.563942374    14.045008244     7.685071052     # c2
      5      0   2 -0.200000    -3.829506837    14.271902774     6.210128861     # c2
      6      0   2 -0.200000    -4.061300288    15.854472351     5.957757459     # c2
      7      0   2 -0.200000    -4.621599889    16.130938421     4.622380704     # c2
      8      0   2 -0.200000    -5.528307110    17.347535058     4.120374727     # c2
      9      0   3 -0.100000    -6.941792773    16.758414764     3.672540276     # c1
     10      0   2 -0.200000    -1.205823019    20.119970843     2.732953507     # c2
     11      0   1 -0.300000    -5.863494447    16.991454535     2.376539172     # c3
     12      0   4  0.100000    -2.042661180    10.471052902     9.232884657     # h
     13      0   4  0.100000    -3.692689166    10.356749551     9.682480909     # h
     14      0   4  0.100000    -2.416172250    10.818090689    10.854103866     # h
     15      0   4  0.100000    -3.863984732    12.868661253    10.176565564     # h
     16      0   4  0.100000    -2.216186466    13.059690907     9.789840421     # h
     17      0   4  0.100000    -2.701924341    12.073394076     7.424386693     # h
     18      0   4  0.100000    -4.377536143    12.052007404     7.838372789     # h
     19      0   4  0.100000    -4.176231998    14.598331769     8.367291817     # h
     20      0   4  0.100000    -2.738794825    14.664457080     8.014529003     # h
     21      0   4  0.100000    -3.159633767    13.691336449     5.593720182     # h
     22      0   4  0.100000    -4.644552818    13.637411325     5.827750858     # h
     23      0   4  0.100000    -4.732537515    16.336864313     6.674383200     # h
     24      0   4  0.100000    -3.224446847    16.432799606     6.279281892     # h
     25      0   4  0.100000    -3.954519722    15.785108622     3.905672201     # h
     26      0   4  0.100000    -5.145400756    15.289876763     4.352624935     # h
     27      0   4  0.100000    -6.181697772    17.825598874     4.879858817     # h
     28      0   4  0.100000    -5.252815483    17.765141420     5.116302663     # h
     29      0   4  0.100000    -5.217350370    19.303640767     2.677442780     # h
     30      0   4  0.100000    -2.268419094    19.517237901     3.006440580     # h
     31      0   4  0.100000    -2.186699983    19.403321489     2.306677483     # h
     32      0   4  0.100000    -5.257008794    15.997710953     2.194319098     # h
     33      0   4  0.100000    -5.899414490    16.781649887     1.187293358     # h
     34      0   4  0.100000    -6.812408678    17.138221794     1.825828190     # h
     35      0   1 -0.300000     1.171099429    10.793272611    10.220399740     # c3
     36      0   2 -0.200000     0.808805471    12.204303574     9.892629283     # c2
     37      0   2 -0.200000     0.015835299    12.342710593     8.610975876     # c2
     38      0   2 -0.200000    -0.328969701    13.789909732     8.330010429     # c2
     39      0   2 -0.200000    -0.758714051    14.105718657     6.962701775     # c2
     40      0   2 -0.200000    -0.818111824    15.459622946     6.389702299     # c2
     41      0   2 -0.200000    -1.138375157    15.292592844     4.906596524     # c2
     42      0   2 -0.200000    -1.236487891    16.714620303     4.328755931     # c2
     43      0   3 -0.100000    -1.774033500    15.841691302     3.094843999     # c1
     44      0   2 -0.200000    -0.888367759    16.288517711     2.080618210     # c2
     45      0   4  0.100000     1.816884930    10.384100913     9.409882590     # h
     46      0   4  0.100000     0.254855035    10.199534299    10.320911404     # h
     47      0   4  0.100000     1.764668181    10.798389582    11.154430607     # h
     48      0   4  0.100000     0.334073050    12.797501401    10.683802583     # h
     49      0   4  0.100000     1.799544643    12.609656805     9.943661921     # h
     50      0   4  0.100000     0.350333286    11.699934851     7.789168980     # h
     51      0   4  0.100000    -0.896574448    11.817872847     8.606480061     # h
     52      0   4  0.100000    -0.903703054    14.345604012     9.063680070     # h
     53      0   4  0.100000     0.569992760    14.265397449     8.593635132     # h
     54      0   4  0.100000     0.044292618    14.020223316     6.325024732     # h
     55      0   4  0.100000    -1.448454999    13.387364118     6.523177933     # h
     56      0   4  0.100000    -1.482364489    16.084018757     6.968612360     # h
     57      0   4  0.100000     0.113169850    16.042894921     6.381092257     # h
     58      0   4  0.100000    -0.520124974    14.542028036     4.323387029     # h
     59      0   4  0.100000    -2.120504970    14.838864877     4.802335397     # h
     60      0   4  0.100000    -1.760765326    17.132163779     5.140408816     # h
     61      0   4  0.100000    -0.322311355    17.262234123     4.560346844     # h
     62      0   4  0.100000    -2.659143772    16.269375057     2.794357885     # h
     63      0   4  0.100000     0.105085790    16.113025370     2.402958899     # h
     64      0   4  0.100000    -1.060581431    17.313134824     2.038610811     # h
     65      0   1 -0.300000    -6.272610656    11.335249438    -5.484239147     # c3
     66      0   2 -0.200000    -5.330251589    11.134843379    -4.472297819     # c2
     67      0   2 -0.200000    -5.080185972    12.589677095    -4.171824858     # c2
     68      0   2 -0.200000    -4.560897383    12.454739449    -2.803972556     # c2
     69      0   2 -0.200000    -4.358915308    13.750103590    -2.165791128     # c2
     70      0   2 -0.200000    -3.410479571    13.677639078    -1.022760353     # c2
     71      0   2 -0.200000    -2.632926420    14.866109801    -0.854378901     # c2
     72      0   2 -0.200000    -1.833176007    14.734087902     0.464666348     # c2
     73      0   3 -0.100000    -1.006603671    15.942219519     0.687721107     # c1
     74      0   2 -0.200000     0.184455027    16.274063829    -0.001856840     # c2
     75      0   4  0.100000    -6.508055009    10.400131168    -5.919255089     # h
     76      0   4  0.100000    -5.928414879    11.826602548    -6.314432122     # h
     77      0   4  0.100000    -7.145458232    11.927007060    -5.226420544     # h
     78      0   4  0.100000    -5.787519664    10.552647261    -3.658383045     # h
     79      0   4  0.100000    -4.469006775    10.578140034    -4.863108794     # h
     80      0   4  0.100000    -4.372661696    13.025502468    -4.925624901     # h
     81      0   4  0.100000    -5.975222953    13.234814114    -4.141785600     # h
     82      0   4  0.100000    -5.009424671    11.808845455    -2.070897896     # h
     83      0   4  0.100000    -3.780904889    11.706765548    -2.979955842     # h
     84      0   4  0.100000    -4.323630067    14.569000806    -2.875778397     # h
     85      0   4  0.100000    -5.158541535    14.477317090    -2.033919891     # h
     86      0   4  0.100000    -3.899664528    13.381597106    -0.115554391     # h
     87      0   4  0.100000    -2.629793516    12.942319170    -0.894241037     # h
     88      0   4  0.100000    -2.434550218    15.704780697    -1.558253973     # h
     89      0   4  0.100000    -3.519804306    15.467845272    -0.921028880     # h
     90      0   4  0.100000    -2.457217989    14.551901764     1.308915776     # h
     91      0   4  0.100000    -1.178237843    13.909391807     0.644997213     # h
     92      0   4  0.100000    -1.419397429    16.655224794    -0.022149562     # h
     93      0   4  0.100000     0.906377220    16.314495759     0.723554703     # h
     94      0   4  0.100000     0.501020610    17.307779725    -0.287856277     # h
     95      0   1 -0.300000    -1.142866587     6.671844849    -5.556698529     # c3
     96      0   2 -0.200000    -0.313861864     7.393431156    -4.546452300     # c2
     97      0   2 -0.200000    -0.820199943     8.820479414    -4.421682584     # c2
     98      0   2 -0.200000     0.142812323     9.421023797    -3.407782970     # c2
     99      0   2 -0.200000    -0.158463405    10.811507200    -3.066939842     # c2
    100      0   2 -0.200000     0.485598002    11.664309672    -1.944052527     # c2
    101      0   2 -0.200000     0.155167712    13.041481544    -1.735251518     # c2
    102      0   2 -0.200000     0.609290858    13.911776974    -0.707194636     # c2
    103      0   3 -0.100000     0.228406618    15.322007742    -1.089209036     # c1
    104      0   2 -0.200000     1.228755613    15.688849333    -1.927554352     # c2
    105      0   4  0.100000    -0.805620147     5.625244157    -5.600230622     # h
    106      0   4  0.100000    -1.050918804     7.166336582    -6.537462292     # h
    107      0   4  0.100000    -2.196948664     6.706003058    -5.214537609     # h
    108      0   4  0.100000    -0.471204890     6.850871110    -3.612695597     # h
    109      0   4  0.100000     0.777651345     7.382115035    -4.762490612     # h
    110      0   4  0.100000    -0.716270400     9.383986259    -5.374791964     # h
    111      0   4  0.100000    -1.882350750     8.880133202    -4.106406272     # h
    112      0   4  0.100000     0.088192451     8.972810214    -2.411548634     # h
    113      0   4  0.100000     1.120487235     9.422449759    -3.927751501     # h
    114      0   4  0.100000    -0.177386269    11.196887621    -4.087769880     # h
    115      0   4  0.100000    -1.180731945    10.599582007    -2.818351180     # h
    116      0   4  0.100000     0.337508633    11.285597480    -0.930926957     # h
    117      0   4  0.100000     1.547356473    11.882382797    -2.019494995     # h
    118      0   4  0.100000     0.224099352    13.618355234    -2.661772025     # h
    119      0   4  0.100000    -0.766016649    13.142562603    -1.220952853     # h
    120      0   4  0.100000     0.842527944    13.817983712     0.336070765     # h
    121      0   4  0.100000     1.597492918    13.594777466    -0.722231075     # h
    122      0   4  0.100000    -0.655808082    15.646667289    -1.737095555     # h
    123      0   4  0.100000     0.667567120    16.705264163    -2.049262938     # h
    124      0   4  0.100000     0.855526790    15.730678455    -2.858745501     # h
    125      0   1 -0.300000    10.894145370    10.143104415    -3.702430100     # c3
    126      0   2 -0.200000     9.480458694    10.138799674    -3.279851231     # c2
    127      0   2 -0.200000     8.532172594    11.251051482    -3.692307039     # c2
    128      0   2 -0.200000     7.205769775    11.061711087    -3.242805558     # c2
    129      0   2 -0.200000     6.311350102    12.169020787    -3.480336430     # c2
    130      0   2 -0.200000     4.855609427    12.296246679    -3.341662273     # c2
    131      0   2 -0.200000     4.452627301    13.698847383    -2.996602297     # c2
    132      0   2 -0.200000     3.241863649    14.095593096    -2.241830992     # c2
    133      0   3 -0.100000     2.633463276    15.350160539    -1.607682671     # c1
    134      0   2 -0.200000     2.911612796    16.056453445    -0.303098908     # c2
    135      0   4  0.100000    11.470678535     9.242961541    -3.733640368     # h
    136      0   4  0.100000    11.562792173    10.918610357    -3.356329508     # h
    137      0   4  0.100000    10.863482421    10.569223888    -4.645664373     # h
    138      0   4  0.100000     8.935261712     9.286068744    -3.560162145     # h
    139      0   4  0.100000     9.432934958     9.985621903    -2.215324981     # h
    140      0   4  0.100000     8.645897607    12.332686759    -3.561334155     # h
    141      0   4  0.100000     8.609548720    11.904179493    -4.494027172     # h
    142      0   4  0.100000     6.938635724    10.062992378    -3.420679203     # h
    143      0   4  0.100000     7.078005773    10.808020616    -2.282439461     # h
    144      0   4  0.100000     6.814226204    13.000619764    -3.211047365     # h
    145      0   4  0.100000     6.163310449    12.509041565    -4.382522152     # h
    146      0   4  0.100000     4.066490471    11.742466055    -3.746597202     # h
    147      0   4  0.100000     4.888103059    11.334240777    -2.969448915     # h
    148      0   4  0.100000     5.338722944    14.155990191    -2.617561871     # h
    149      0   4  0.100000     4.552606470    13.990935718    -3.999147304     # h
    150      0   4  0.100000     2.608633498    13.313319266    -2.475293558     # h
    151      0   4  0.100000     3.386241343    13.773590846    -1.297178391     # h
    152      0   4  0.100000     3.381167739    15.827545016    -1.935660648     # h
    153      0   4  0.100000     2.338616481    15.473620614     0.362469230     # h
    154      0   4  0.100000     2.674324186    17.147093776    -0.242663515     # h
    155      0   1 -0.300000    13.588007219     9.705183244    -0.912024804     # c3
    156      0   2 -0.200000    12.265956206     9.251604708    -0.250630433     # c2
    157      0   2 -0.200000    11.962200050    10.577408449    -0.248026949     # c2
    158      0   2 -0.200000     8.523734046    11.410249795    -0.735129405     # c2
    159      0   2 -0.200000     8.762946626    12.316410219     0.278928249     # c2
    160      0   2 -0.200000     7.793973680    11.781770134     1.069644565     # c2
    161      0   2 -0.200000     5.264352921    14.765116795     0.570339951     # c2
    162      0   2 -0.200000     4.082208043    14.265763506     0.898388601     # c2
    163      0   3 -0.100000     4.014272415    15.834468828     0.559572335     # c1
    164      0   2 -0.200000     4.189462837    16.646178654     1.781557162     # c2
    165      0   4  0.100000    14.063705894     8.821122603    -0.510231344     # h
    166      0   4  0.100000    14.035541522    10.728662100    -0.541175815     # h
    167      0   4  0.100000    13.351739513     9.831353778    -1.962251467     # h
    168      0   4  0.100000    11.390397673     8.694687004    -0.726005650     # h
    169      0   4  0.100000    12.431290657     9.419304166     0.803636199     # h
    170      0   4  0.100000    12.755826410    12.253256189     0.509259009     # h
    171      0   4  0.100000    11.600649797    10.578904381    -1.384341251     # h
    172      0   4  0.100000     8.070597294    10.506054065    -0.857883046     # h
    173      0   4  0.100000     9.682162543    11.274760657     0.037082394     # h
    174      0   4  0.100000     9.182975377    13.188204825     0.015188621     # h
    175      0   4  0.100000     8.641365002    12.513427044    -0.718766151     # h
    176      0   4  0.100000     6.853158854    11.435210682     0.726564891     # h
    177      0   4  0.100000     7.058543006    12.512340844     1.462898989     # h
    178      0   4  0.100000     5.610654596    13.581729004     1.019194296     # h
    179      0   4  0.100000     5.778781078    14.990820693    -0.488636987     # h
    180      0   4  0.100000     3.432437484    13.535574369     0.484724586     # h
    181      0   4  0.100000     4.305126611    14.154369754     1.938776433     # h
    182      0   4  0.100000     4.489774983    16.450867901    -0.295413722     # h
    183      0   4  0.100000     3.240431238    16.881162190     2.050704220     # h
    184      0   4  0.100000     4.111499159    17.601216986     1.433619519     # h
    185      0   1 -0.300000    12.034506396     8.781760439     5.025601662     # c3
    186      0   2 -0.200000    10.744870273     9.339473074     5.625373317     # c2
    187      0   2 -0.200000    10.548140032    10.323295733     4.484296115     # c2
    188      0   2 -0.200000     9.065216507    10.067432794     4.555846736     # c2
    189      0   2 -0.200000     9.584305249    12.600287360     2.860471436     # c2
    190      0   2 -0.200000     8.364931119    13.494029332     3.468458544     # c2
    191      0   2 -0.200000     7.351462410    14.348077161     2.805972130     # c2
    192      0   2 -0.200000     6.289574571    15.334239815     3.273583023     # c2
    193      0   3 -0.100000     5.347489723    16.427178231     2.725668945     # c1
    194      0   2 -0.200000     4.719523044    17.213816395     3.645639525     # c2
    195      0   4  0.100000    12.243034783     7.832163667     5.502099794     # h
    196      0   4  0.100000    12.867902142     9.507025161     4.998482911     # h
    197      0   4  0.100000    12.032254262     8.472815171     3.965222185     # h
    198      0   4  0.100000     9.840135301     8.615371086     5.755273198     # h
    199      0   4  0.100000    10.660943118     9.882628356     6.572039813     # h
    200      0   4  0.100000    11.191239484    11.232611474     4.402314454     # h
    201      0   4  0.100000    10.652978442     9.965511605     3.515270371     # h
    202      0   4  0.100000     8.550152005    10.285924343     3.576036805     # h
    203      0   4  0.100000     9.374038461    11.079737261     4.981264096     # h
    204      0   4  0.100000    10.163564836    12.530999837     3.719638415     # h
    205      0   4  0.100000     9.203945120    11.709885757     2.577750086     # h
    206      0   4  0.100000     7.737690257    12.794137451     3.063547694     # h
    207      0   4  0.100000     8.153183193    13.647904975     4.843082951     # h
    208      0   4  0.100000     8.256715014    14.710268938     2.756076875     # h
    209      0   4  0.100000     8.656459991    14.177103157     3.531500214     # h
    210      0   4  0.100000     5.576402241    14.631785454     3.236543005     # h
    211      0   4  0.100000     6.602084940    16.030055139     4.024454965     # h
    212      0   4  0.100000     6.174487645    16.477276035     2.164056478     # h
    213      0   4  0.100000     8.116359337    16.222349980     5.150075180     # h
    214      0   4  0.100000     5.295677494    18.425613288     3.880561270     # h
    215      0   1 -0.300000     4.494446365    28.715206228    -0.280256296     # c3
    216      0   2 -0.200000     5.113419111    27.484779763    -0.534439182     # c2
    217      0   2 -0.200000     5.709371666    27.126814901     0.763309564     # c2
    218      0   2 -0.200000     5.879920031    25.723330238     0.649394106     # c2
    219      0   2 -0.200000     5.670769740    24.994751604     1.783503866     # c2
    220      0   2 -0.200000     5.671095384    21.989155655     1.718128172     # c2
    221      0   2 -0.200000     6.449594729    21.920797418     2.936043206     # c2
    222      0   2 -0.200000     7.032645038    20.649011493     3.217240021     # c2
    223      0   3 -0.100000     8.564342540    21.562576657     2.960721448     # c1
    224      0   2 -0.200000     9.653874808    20.791811990     2.518696302     # c2
    225      0   4  0.100000     4.038537045    29.258759314    -1.095363432     # h
    226      0   4  0.100000     5.456240511    29.155083230     0.018273951     # h
    227      0   4  0.100000     3.797226721    28.612487224     0.600986817     # h
    228      0   4  0.100000     4.107547774    27.395646535    -0.776868633     # h
    229      0   4  0.100000     5.750096919    27.669963164    -1.388892627     # h
    230      0   4  0.100000     6.683493752    27.635328922     1.002264398     # h
    231      0   4  0.100000     5.134104605    27.501105213     1.576270789     # h
    232      0   4  0.100000     5.333139137    24.992005442     0.183032219     # h
    233      0   4  0.100000     6.722319674    25.921924823     0.004594580     # h
    234      0   4  0.100000     6.675333618    24.405636464     1.613990154     # h
    235      0   4  0.100000     4.705886589    24.447245969     1.964271904     # h
    236      0   4  0.100000     4.753480451    21.602582596     1.925939914     # h
    237      0   4  0.100000     5.894801721    23.612446644     2.981141902     # h
    238      0   4  0.100000     6.920538408    22.585870695     2.266595301     # h
    239      0   4  0.100000     6.329276951    21.973835011     4.035702884     # h
    240      0   4  0.100000     5.698611837    20.290803750     2.915095000     # h
    241      0   4  0.100000     7.241599561    20.493979409     2.152754502     # h
    242      0   4  0.100000     7.967700453    20.483768494     3.785332030     # h
    243      0   4  0.100000     9.491194013    21.555763524     1.787330902     # h
    244      0   4  0.100000     9.154642390    20.218001651     1.792546330     # h
    245      0   1 -0.300000    17.756464651    12.169469019    -0.626915149     # c3
    246      0   2 -0.200000    16.320879391    12.268509121    -0.354395406     # c2
    247      0   2 -0.200000    16.262706245    13.778403386    -0.088504496     # c2
    248      0   2 -0.200000    15.007899148    13.758750138     0.565068867     # c2
    249      0   2 -0.200000    14.601854320    15.187975324     0.929106401     # c2
    250      0   2 -0.200000    13.211738674    15.101608363     1.220660450     # c2
    251      0   2 -0.200000    12.301711524    16.606558553     1.195855917     # c2
    252      0   2 -0.200000    11.692716980    15.305050948     1.078664393     # c2
    253      0   3 -0.100000     8.756975271    23.090845439     2.853573423     # c1
    254      0   2 -0.200000    13.077288719    18.033780000     4.029400751     # c2
    255      0   4  0.100000    18.044652603    11.129534618    -0.741549962     # h
    256      0   4  0.100000    18.341351327    12.648767789     0.158747556     # h
    257      0   4  0.100000    18.012251482    12.817537342    -1.476358815     # h
    258      0   4  0.100000    15.649098513    12.023623231    -1.197645751     # h
    259      0   4  0.100000    15.950647734    11.655521322     0.511436301     # h
    260      0   4  0.100000    16.849439927    14.270672013     0.679867575     # h
    261      0   4  0.100000    16.162555321    14.480897673    -0.930251937     # h
    262      0   4  0.100000    14.352037893    13.389738480    -0.208045180     # h
    263      0   4  0.100000    14.601757572    12.999528430     1.261211004     # h
    264      0   4  0.100000    15.023022332    15.938660388     1.515581244     # h
    265      0   4  0.100000    14.929296575    16.025091718     0.469678101     # h
    266      0   4  0.100000    13.454066647    15.022610988     0.242854399     # h
    267      0   4  0.100000    13.085455302    14.070081536     1.905536791     # h
    268      0   4  0.100000    12.859191092    17.080140642     2.015912167     # h
    269      0   4  0.100000    12.988709004    17.054516399     0.392420721     # h
    270      0   4  0.100000    11.316755034    16.514640515     1.391045658     # h
    271      0   4  0.100000    11.122404649    16.226604764     1.683903445     # h
    272      0   4  0.100000    11.195230575    20.343721859     2.810989644     # h
    273      0   4  0.100000     9.603409100    16.763221809     4.290214705     # h
    274      0   4  0.100000     9.694271745    21.562058839     4.525485035     # h
    275      0   1 -0.300000    20.343113066    12.989880696     2.620828594     # c3
    276      0   2 -0.200000    18.903660769    12.635970011     2.783919856     # c2
    277      0   2 -0.200000    18.228174370    13.895917074     2.976775677     # c2
    278      0   2 -0.200000    16.850891156    13.624637086     3.152235614     # c2
    279      0   2 -0.200000    16.329877710    14.914883782     3.401981508     # c2
    280      0   2 -0.200000    15.033592560    14.840208426     3.628189226     # c2
    281      0   2 -0.200000    14.789811220    16.251811026     3.988091098     # c2
    282      0   2 -0.200000    13.600862874    15.503299815     3.916609783     # c2
    283      0   3 -0.100000    12.289222488    19.033554717     5.217226920     # c1
    284      0   2 -0.200000    12.506196598    18.194437383     6.408784498     # c2
    285      0   4  0.100000    20.867611582    12.067526262     2.395172492     # h
    286      0   4  0.100000    20.751941259    13.442852835     3.537908936     # h
    287      0   4  0.100000    20.520501090    13.728677514     1.820004612     # h
    288      0   4  0.100000    18.411815361    12.136985883     1.962136867     # h
    289      0   4  0.100000    18.637974495    12.038361464     3.664632890     # h
    290      0   4  0.100000    18.318891479    14.192753552     4.032603774     # h
    291      0   4  0.100000    18.260824837    14.618892319     2.140565923     # h
    292      0   4  0.100000    16.286758577    13.184095204     2.374491705     # h
    293      0   4  0.100000    16.620022731    13.129892585     4.068244629     # h
    294      0   4  0.100000    16.636931664    15.333027443     4.499395309     # h
    295      0   4  0.100000    16.419040199    15.679704854     2.533235699     # h
    296      0   4  0.100000    14.688300940    14.196881117     2.834615961     # h
    297      0   4  0.100000    14.868789075    13.900638245     4.015664630     # h
    298      0   4  0.100000    14.303521024    16.621951908     4.852780147     # h
    299      0   4  0.100000    14.563878451    16.813344591     3.060064463     # h
    300      0   4  0.100000    13.019446583    15.879589222     3.231063818     # h
    301      0   4  0.100000    12.985583960    14.664385051     4.056497943     # h
    302      0   4  0.100000    13.243779736    19.086250703     4.830855283     # h
    303      0   4  0.100000    10.833866153    17.697518536     7.261342660     # h
    304      0   4  0.100000    11.484346128    18.714801008     6.326619813     # h
    305      0   1 -0.300000    20.911836802    18.645338856    12.377404344     # c3
    306      0   2 -0.200000    20.262004066    18.775056983    11.026890673     # c2
    307      0   2 -0.200000    18.849967667    18.229040239    11.027427134     # c2
    308      0   2 -0.200000    18.222169600    18.406704246     9.678610284     # c2
    309      0   2 -0.200000    16.789023888    18.059679568     9.644784676     # c2
    310      0   2 -0.200000    16.255016548    18.223472726     8.277172494     # c2
    311      0   2 -0.200000    14.858491535    17.645401610     8.291577899     # c2
    312      0   2 -0.200000    14.273719558    18.008475685     6.910307954     # c2
    313      0   3 -0.100000    13.901433617    19.641562157     7.294122516     # c1
    314      0   2 -0.200000    13.817531248    13.448689002     5.919449633     # c2
    315      0   4  0.100000    21.915545658    19.103688520    12.349477951     # h
    316      0   4  0.100000    20.986447329    17.589890837    12.671369551     # h
    317      0   4  0.100000    20.317387647    19.199298570    13.132157705     # h
    318      0   4  0.100000    20.282234953    19.844409421    10.874672806     # h