LAMMPS data file of the system for full atom style

     651 atoms
     641 bonds
     687 angles
     722 dihedrals

    3 atom types
    1 bond types
    2 angle types
    2 dihedral types

    0.000000    23.503700 xlo xhi
    0.000000    23.503700 ylo yhi
    0.000000    23.503700 zlo zhi

 Masses 

    1    15.034220
    2    14.026380
    3    13.018540

 Pair Coeffs 

    1     0.194746     3.750000    14.000000
    2     0.091411     3.950000    14.000000
    3     0.019872     4.680000    14.000000

 Bond Coeffs 

    1   450.002259      1.540000

 Angle Coeffs 

    1    62.100113    114.000000
    2    62.100113    112.000000

 Dihedral Coeffs 

    1     4    0.0000000     0     90    0.7055169     1     0   -0.1355074     2   180    1.5725140     3     0
    2     4   -0.4989073     0     90    0.8519738     1     0   -0.2222687     2   180    0.8768933     3     0

 Atoms 

    1     0     1     0.000000      1.248018     40.012713    29.603653
    2     0     2     0.000000      1.037259     38.843898    28.642680
    3     0     2     0.000000      2.174852     38.735070    27.642088
    4     0     2     0.000000      2.255629     37.386996    26.911154
    5     0     2     0.000000      3.406453     37.400631    25.896281
    6     0     2     0.000000      4.004900     36.038083    25.440909
    7     0     2     0.000000      4.226921     36.049803    23.925311
    8     0     2     0.000000      4.182258     34.970789    22.871034
    9     0     3     0.000000      4.076158     35.171588    21.357471
   10     0     2     0.000000      3.404939     36.275883    20.535150
   11     0     1     0.000000      5.275136     34.608158    20.604766
   12     0     1     0.000000      2.989080     47.568420    19.494703
   13     0     2     0.000000      3.271857     46.210346    18.868106
   14     0     2     0.000000      2.726427     45.056535    19.715211
   15     0     2     0.000000      3.142375     43.769081    19.006009
   16     0     2     0.000000      2.913383     42.498973    19.816317
   17     0     2     0.000000      3.653127     41.329791    19.127527
   18     0     2     0.000000      3.425846     40.050695    19.915542
   19     0     2     0.000000      4.090823     38.711305    19.525526
   20     0     3     0.000000      3.845739     37.723406    20.663684
   21     0     2     0.000000      4.855314     37.932308    21.726726
   22     0     1     0.000000      6.638330     47.895562    21.150219
   23     0     2     0.000000      6.590110     46.842496    20.040595
   24     0     2     0.000000      5.937965     45.853516    20.990984
   25     0     2     0.000000      6.164966     44.440141    20.557693
   26     0     2     0.000000      5.489859     43.703615    21.693655
   27     0     2     0.000000      5.821922     42.264391    21.403694
   28     0     2     0.000000      5.056441     41.582588    22.541974
   29     0     2     0.000000      5.311241     40.205784    22.055217
   30     0     3     0.000000      4.735796     39.018575    22.772911
   31     0     2     0.000000      5.566482     38.666714    24.022706
   32     0     1     0.000000     15.986834     40.107550    20.459387
   33     0     2     0.000000     14.739249     39.945800    19.655082
   34     0     2     0.000000     13.169906     39.787120    19.927712
   35     0     2     0.000000     13.274840     40.087286    18.438808
   36     0     2     0.000000      9.989608     37.809155    23.068331
   37     0     2     0.000000     10.192190     38.762258    21.672298
   38     0     2     0.000000      8.946858     38.552772    22.553532
   39     0     2     0.000000      7.555307     38.861313    22.796877
   40     0     3     0.000000      6.941373     37.943244    23.895551
   41     0     2     0.000000      6.852543     36.518561    23.345468
   42     0     1     0.000000     17.027960     34.080381    23.404686
   43     0     2     0.000000     15.624935     33.584249    23.552537
   44     0     2     0.000000     14.602207     34.317923    24.328314
   45     0     2     0.000000     13.439772     34.188781    23.368189
   46     0     2     0.000000     12.307606     34.957676    23.982643
   47     0     2     0.000000     11.188561     34.787022    22.981331
   48     0     2     0.000000      9.998689     35.201380    23.802088
   49     0     2     0.000000      8.858777     35.275318    22.776985
   50     0     3     0.000000      7.675465     35.333397    23.747118
   51     0     2     0.000000      7.049020     33.972593    23.372128
   52     0     1     0.000000     16.253292     29.957473    27.992602
   53     0     2     0.000000     15.590729     30.998890    27.164021
   54     0     2     0.000000     14.122576     30.613829    26.947133
   55     0     2     0.000000     13.566298     31.307034    25.715942
   56     0     2     0.000000     12.166182     31.838626    25.840028
   57     0     2     0.000000     11.341249     31.809724    24.575340
   58     0     2     0.000000      9.944222     32.284978    24.925373
   59     0     2     0.000000      9.102278     32.381810    23.658243
   60     0     3     0.000000      7.691056     32.787124    24.072235
   61     0     2     0.000000      6.915709     31.493466    24.030258
   62     0     1     0.000000     -3.695754     30.501470    21.031682
   63     0     2     0.000000     -2.600112     31.111893    21.877528
   64     0     2     0.000000     -1.221625     30.547494    21.558977
   65     0     2     0.000000     -0.130140     31.597418    21.781192
   66     0     2     0.000000      1.242127     30.959759    21.907491
   67     0     2     0.000000      2.375976     31.962179    22.167135
   68     0     2     0.000000      3.437997     31.274446    23.023713
   69     0     2     0.000000      4.592686     32.085535    23.532432
   70     0     3     0.000000      5.508741     31.423552    24.560188
   71     0     2     0.000000      5.348514     32.001737    25.960573
   72     0     1     0.000000      2.092050     29.639241    36.070696
   73     0     2     0.000000      2.643736     30.488056    34.968467
   74     0     2     0.000000      2.533118     30.160913    33.505659
   75     0     2     0.000000      3.988921     30.501987    33.024506
   76     0     2     0.000000      4.343498     30.074858    31.601476
   77     0     2     0.000000      5.575528     30.563914    30.832829
   78     0     2     0.000000      5.002260     30.581018    29.418168
   79     0     2     0.000000      5.160688     31.725304    28.442866
   80     0     3     0.000000      5.841019     31.207763    27.163718
   81     0     2     0.000000      7.346846     31.041212    27.370606
   82     0     1     0.000000      7.035121     41.861502    28.590542
   83     0     2     0.000000      7.051654     40.872119    27.414449
   84     0     2     0.000000      6.848110     39.493108    27.995453
   85     0     2     0.000000      7.018901     38.263382    27.140140
   86     0     2     0.000000      6.968945     37.067159    28.092097
   87     0     2     0.000000      7.298565     35.796657    27.354544
   88     0     2     0.000000      7.370100     34.601748    28.297835
   89     0     2     0.000000      7.792724     33.494646    27.341878
   90     0     3     0.000000      8.071415     32.202772    28.075827
   91     0     2     0.000000      9.536077     31.883486    28.181916
   92     0     1     0.000000     11.328601     41.974731    28.238433
   93     0     2     0.000000      9.986479     41.372147    28.468107
   94     0     2     0.000000      9.852230     40.216894    29.426018
   95     0     2     0.000000      9.730191     38.980575    28.560406
   96     0     2     0.000000      9.935767     37.623839    29.181063
   97     0     2     0.000000     10.396497     36.667057    28.066958
   98     0     2     0.000000     10.697672     35.322812    28.681335
   99     0     2     0.000000     10.729824     34.141299    27.751237
  100     0     3     0.000000     10.597764     32.882583    28.592475
  101     0     2     0.000000     11.973435     32.180214    28.784275
  102     0     1     0.000000      9.145438     25.713741    37.031717
  103     0     2     0.000000      8.596433     26.515844    35.915598
  104     0     2     0.000000      9.585912     26.987774    34.844306
  105     0     2     0.000000      9.167354     28.223644    34.068811
  106     0     2     0.000000      9.152187     28.203017    32.550957
  107     0     2     0.000000      8.962179     29.661661    32.066860
  108     0     2     0.000000      9.798602     29.994415    30.884701
  109     0     2     0.000000     10.773159     31.202061    30.838192
  110     0     3     0.000000     12.033453     31.113694    29.854964
  111     0     2     0.000000     13.331175     30.085459    30.205769
  112     0     1     0.000000     11.679978     24.478139    38.598107
  113     0     2     0.000000     11.886896     25.763230    37.797905
  114     0     2     0.000000     12.609321     25.524558    36.485494
  115     0     2     0.000000     12.844020     26.694245    35.532446
  116     0     2     0.000000     14.080186     26.495305    34.627540
  117     0     2     0.000000     14.325116     27.664885    33.633720
  118     0     2     0.000000     13.670942     27.691467    32.263443
  119     0     2     0.000000     13.870829     28.731008    31.035839
  120     0     3     0.000000     12.216590     29.082548    30.861876
  121     0     2     0.000000     18.822514     28.610581    30.339045
  122     0     1     0.000000     22.546140     22.209294    25.794244
  123     0     2     0.000000     21.116737     22.710064    25.644819
  124     0     2     0.000000     20.741319     23.361622    26.959293
  125     0     2     0.000000     19.407932     24.055997    26.791987
  126     0     2     0.000000     18.650799     23.965746    28.181296
  127     0     2     0.000000     17.722779     25.153757    27.985846
  128     0     2     0.000000     17.272420     25.813520    29.248173
  129     0     2     0.000000     16.714829     27.233589    29.427797
  130     0     3     0.000000     17.192501     28.162452    30.648368
  131     0     2     0.000000     16.671921     26.978044    31.769688
  132     0     1     0.000000     25.604312     21.894655    36.328300
  133     0     2     0.000000     24.693770     23.001830    35.788315
  134     0     2     0.000000     23.245830     22.591090    35.502791
  135     0     2     0.000000     22.462708     23.586299    34.644824
  136     0     2     0.000000     21.237173     22.939003    33.924995
  137     0     2     0.000000     20.676438     23.721990    32.678585
  138     0     2     0.000000     19.140148     23.827220    32.556927
  139     0     2     0.000000     18.557455     25.104349    31.915125
  140     0     3     0.000000     17.071627     25.522060    31.984249
  141     0     2     0.000000     16.405951     24.257971    31.586765
  142     0     1     0.000000      7.848067     21.913006    37.458554
  143     0     2     0.000000      9.317566     21.484532    37.572144
  144     0     2     0.000000      9.995895     21.691157    36.228828
  145     0     2     0.000000     11.512654     21.688849    36.208118
  146     0     2     0.000000     12.095428     22.751581    35.280987
  147     0     2     0.000000     13.287446     22.231656    34.412852
  148     0     2     0.000000     14.171536     23.239873    33.615352
  149     0     2     0.000000     14.634572     22.807632    32.204023
  150     0     3     0.000000     15.037188     23.916473    31.134645
  151     0     2     0.000000     15.322368     23.241689    29.719256
  152     0     1     0.000000     17.703311     31.161543    23.024467
  153     0     2     0.000000     16.970625     30.881385    24.319513
  154     0     2     0.000000     17.542899     29.512516    24.697338
  155     0     2     0.000000     16.372281     28.794060    25.271692
  156     0     2     0.000000     16.578518     27.555300    26.076393
  157     0     2     0.000000     15.223388     27.451613    26.849753
  158     0     2     0.000000     15.219574     25.976357    27.044017
  159     0     2     0.000000     14.622818     25.320843    28.245312
  160     0     3     0.000000     15.081398     23.884141    28.329650
  161     0     2     0.000000     14.323620     23.023535    27.364060
  162     0     1     0.000000     14.538885     30.957906    21.302000
  163     0     2     0.000000     13.637562     31.113478    22.547486
  164     0     2     0.000000     14.371169     29.790405    22.786654
  165     0     2     0.000000     13.695949     28.903801    23.768061
  166     0     2     0.000000     14.318212     27.538090    23.471300
  167     0     2     0.000000     13.622498     26.727972    24.534021
  168     0     2     0.000000     13.900115     25.253149    24.405794
  169     0     2     0.000000     13.217649     24.559947    25.568212
  170     0     3     0.000000     13.845939     23.252585    25.951624
  171     0     2     0.000000     12.799164     22.188752    25.588997
  172     0     1     0.000000     13.557480     17.396229    15.883350
  173     0     2     0.000000     12.816620     18.544592    16.554696
  174     0     2     0.000000     13.851258     19.115552    17.574722
  175     0     2     0.000000     12.989882     19.619788    18.726630
  176     0     2     0.000000     13.699313     19.648971    20.067415
  177     0     2     0.000000     12.668575     20.184663    21.059082
  178     0     2     0.000000     13.474464     20.758082    22.201189
  179     0     2     0.000000     12.595373     21.401936    23.257476
  180     0     3     0.000000     13.259492     21.121360    24.608246
  181     0     2     0.000000     12.884711     19.691440    25.062446
  182     0     1     0.000000     21.861002     14.182716    27.832350
  183     0     2     0.000000     20.716153     15.145780    27.593265
  184     0     2     0.000000     19.282423     14.789815    27.254655
  185     0     2     0.000000     19.134605     15.779358    26.067360
  186     0     2     0.000000     17.725754     16.180799    25.940534
  187     0     2     0.000000     17.213068     17.162246    24.942973
  188     0     2     0.000000     15.874060     17.743635    25.343243
  189     0     2     0.000000     15.200506     18.810962    24.557593
  190     0     3     0.000000     13.707964     18.511233    24.534116
  191     0     2     0.000000     13.158473     17.569325    23.431424
  192     0     1     0.000000     19.055560      9.201303    26.121195
  193     0     2     0.000000     19.136869     10.422933    25.198109
  194     0     2     0.000000     18.417232     11.423425    26.048958
  195     0     2     0.000000     17.453471     12.601966    26.103764
  196     0     2     0.000000     16.393550     12.911609    25.083325
  197     0     2     0.000000     16.257078     14.179377    24.279384
  198     0     2     0.000000     15.108185     15.006313    24.490580
  199     0     2     0.000000     15.148032     15.930932    23.227113
  200     0     3     0.000000     13.670919     16.138040    23.245038
  201     0     2     0.000000     12.953514     14.926270    22.657889
  202     0     1     0.000000     22.326130     10.299987    19.782810
  203     0     2     0.000000     20.829716     10.210490    19.582405
  204     0     2     0.000000     19.952180     10.524557    20.779982
  205     0     2     0.000000     19.218936     11.789831    20.390089
  206     0     2     0.000000     17.854035     12.063797    20.920653
  207     0     2     0.000000     17.323376     13.445993    20.642365
  208     0     2     0.000000     15.822840     13.635323    20.654612
  209     0     2     0.000000     14.948233     13.224785    21.826356
  210     0     3     0.000000     13.557201     13.820088    21.773610
  211     0     2     0.000000     12.483810     13.210926    20.908905
  212     0     1     0.000000      6.972844      8.607630    12.549144
  213     0     2     0.000000      7.341050      8.795611    13.970629
  214     0     2     0.000000      8.199609      9.946543    14.463106
  215     0     2     0.000000      7.882946      9.973569    16.016220
  216     0     2     0.000000      8.543943     11.042986    16.969456
  217     0     2     0.000000      9.302703     10.571998    18.341386
  218     0     2     0.000000     10.819969     11.019281    18.447636
  219     0     2     0.000000     11.672092     11.103394    19.700419
  220     0     3     0.000000     12.753650     12.192123    19.830909
  221     0     2     0.000000     13.568708     12.735538    18.658929
  222     0     1     0.000000      8.907038      5.424166    13.637026
  223     0     2     0.000000     10.358618      5.465295    14.053983
  224     0     2     0.000000     10.250694      7.012453    14.106211
  225     0     2     0.000000      9.988058      7.865049    12.665185
  226     0     2     0.000000      9.095148      7.527624    11.466476
  227     0     2     0.000000     16.206764      9.870725    20.945977
  228     0     2     0.000000     15.128441      9.844810    19.907153
  229     0     2     0.000000     15.101731     10.817555    18.796820
  230     0     3     0.000000     14.429681     11.707799    17.904967
  231     0     2     0.000000     16.087198     12.473898    17.910562
  232     0     1     0.000000     27.029110     13.019902    17.032384
  233     0     2     0.000000     25.761746     12.426799    16.471064
  234     0     2     0.000000     24.575071     12.554271    17.409093
  235     0     2     0.000000     23.444818     12.199001    16.494833
  236     0     2     0.000000     22.175354     12.245321    17.319630
  237     0     2     0.000000     20.829291     12.342218    16.609882
  238     0     2     0.000000     19.744527     12.685739    17.601259
  239     0     2     0.000000     18.591396     12.002091    17.009863
  240     0     3     0.000000     17.404373     11.645195    17.798482
  241     0     2     0.000000     17.643545     10.175462    18.069297
  242     0     1     0.000000     23.017567      2.198823    14.193464
  243     0     2     0.000000     23.179266      1.627154    15.645045
  244     0     2     0.000000     23.788552      0.293899    15.008421
  245     0     2     0.000000     20.673814      7.702938    18.467687
  246     0     2     0.000000     21.103184      6.332465    17.827120
  247     0     2     0.000000     19.499866      5.837224    17.625013
  248     0     2     0.000000     18.217095      6.750980    17.977095
  249     0     2     0.000000     18.279545      8.037822    17.162994
  250     0     3     0.000000     17.273127      9.133904    17.068092
  251     0     2     0.000000     15.903121      8.956228    16.477262
  252     0     1     0.000000     20.326671     17.196545    10.858517
  253     0     2     0.000000     19.757595     16.644649    12.162690
  254     0     2     0.000000     18.960870     15.322749    12.067651
  255     0     2     0.000000     19.101490     14.790799    13.451689
  256     0     2     0.000000     18.334915     13.866123    14.318673
  257     0     2     0.000000     16.887226     13.493917    14.460398
  258     0     2     0.000000     16.702936     12.142462    15.059833
  259     0     2     0.000000     15.485243     11.286794    15.182836
  260     0     3     0.000000     15.515591      9.734921    15.267504
  261     0     2     0.000000     14.581321      9.157026    14.250531
  262     0     1     0.000000     16.650980     -1.328338    11.297294
  263     0     2     0.000000     16.897444      0.133578    11.432604
  264     0     2     0.000000     16.299004      1.379560    12.224389
  265     0     2     0.000000     17.218401      1.884037    11.091248
  266     0     2     0.000000     13.873337      4.165941    15.118904
  267     0     2     0.000000     14.995883      4.001171    13.995265
  268     0     2     0.000000     14.835519      5.352426    13.178855
  269     0     2     0.000000     14.770064      6.582434    14.119826
  270     0     3     0.000000     13.898817      7.793890    13.890213
  271     0     2     0.000000     13.228831      8.081176    12.497152
  272     0     1     0.000000      8.161692     -1.030492     8.464738
  273     0     2     0.000000      9.536422     -0.534998     8.173742
  274     0     2     0.000000      9.458664      1.011642     7.733624
  275     0     2     0.000000     10.558260      1.355984     8.707989
  276     0     2     0.000000     11.684388      2.132619     9.562426
  277     0     2     0.000000     11.636916      0.498874     9.300927
  278     0     2     0.000000     11.812125      8.337936    10.240449
  279     0     2     0.000000     11.955953      6.802905    10.324586
  280     0     3     0.000000     13.481970      7.208738    11.131415
  281     0     2     0.000000     14.395434      7.702330     9.892139
  282     0     1     0.000000     23.922537     11.460798     7.023367
  283     0     2     0.000000     22.523941     10.958764     7.269241
  284     0     2     0.000000     26.423929     11.390852     9.072910
  285     0     2     0.000000     18.037348     11.604919     5.149472
  286     0     2     0.000000     20.110946     10.681681     5.533523
  287     0     2     0.000000     20.712395     11.926501     3.972202
  288     0     2     0.000000     15.842866      7.997782    12.163044
  289     0     2     0.000000     16.638668      8.547691    11.094865
  290     0     3     0.000000     15.925533      7.709952     9.890849
  291     0     2     0.000000     16.388240      6.263341    10.007547
  292     0     1     0.000000     25.293446      4.774913    15.809989
  293     0     2     0.000000     24.377738      5.977102    15.546570
  294     0     2     0.000000     23.064189      5.391404    15.014792
  295     0     2     0.000000     22.526178      6.132821    13.824787
  296     0     2     0.000000     21.322674      5.565793    13.084334
  297     0     2     0.000000     20.003819      5.604761    13.680541
  298     0     2     0.000000     18.791137      5.260915    12.779979
  299     0     2     0.000000     18.393503      6.308783    11.772886
  300     0     3     0.000000     17.769134      5.954051    10.468000
  301     0     2     0.000000     18.494701      4.791377     9.935928
  302     0     1     0.000000     27.705371      3.072201    13.907755
  303     0     2     0.000000     27.066413      3.391004    12.565431
  304     0     2     0.000000     25.636055      2.871043    12.456306
  305     0     2     0.000000     24.987699      3.170636    11.108853
  306     0     2     0.000000     23.627241      3.828607    11.199649
  307     0     2     0.000000     23.147769      4.553708     9.938043
  308     0     2     0.000000     21.968209      5.349242    10.406714
  309     0     2     0.000000     20.873472      6.038065     9.637478
  310     0     3     0.000000     19.807278      5.068132     9.293030
  311     0     2     0.000000     20.316113      3.844290     8.579093
  312     0     1     0.000000     28.826601     -1.852224     9.334220
  313     0     2     0.000000     27.382335     -1.678912     9.774152
  314     0     2     0.000000     26.521833     -1.083296     8.670978
  315     0     2     0.000000     25.374604     -0.247267     9.233880
  316     0     2     0.000000     24.947236      0.799477     8.226460
  317     0     2     0.000000     23.602882      1.351107     8.681205
  318     0     2     0.000000     23.087288      1.981047     7.431007
  319     0     2     0.000000     21.721017      2.522584     7.344008
  320     0     3     0.000000     21.407851      3.947844     7.638551
  321     0     2     0.000000     21.789865      5.229365     6.928746
  322     0     1     0.000000     30.856725      9.541589     9.708044
  323     0     2     0.000000     30.032913     10.284621     8.686051
  324     0     2     0.000000     28.637285      9.765060     8.936635
  325     0     2     0.000000     27.975374      9.820752     7.510737
  326     0     2     0.000000     26.655951      9.059718     7.641513
  327     0     2     0.000000     25.555335      8.769756     6.663217
  328     0     2     0.000000     24.675427      7.765450     7.443797
  329     0     2     0.000000     23.533626      7.113122     6.672734
  330     0     3     0.000000     23.242552      5.691765     7.136903
  331     0     2     0.000000     24.033431      4.571263     6.516996
  332     0     1     0.000000     32.320321      0.252892    11.066818
  333     0     2     0.000000     30.877907      0.752062    11.026581
  334     0     2     0.000000     30.818550      1.936558    10.042344
  335     0     2     0.000000     29.987618      3.162624    10.429360
  336     0     2     0.000000     29.559441      4.080058     9.277666
  337     0     2     0.000000     28.108990      4.259505     9.670949
  338     0     2     0.000000     26.871261      3.853146     8.945421
  339     0     2     0.000000     25.839069      4.306076     8.029108
  340     0     3     0.000000     25.523829      4.391379     6.577038
  341     0     2     0.000000     26.086313      5.395799     5.616353
  342     0     1     0.000000     21.666426      2.045367    -3.961317
  343     0     2     0.000000     22.427471      1.451361    -2.780518
  344     0     2     0.000000     22.585512      2.559094    -1.745564
  345     0     2     0.000000     23.565431      2.076958    -0.689206
  346     0     2     0.000000     23.884834      3.222979     0.240827
  347     0     2     0.000000     24.900668      2.778160     1.302276
  348     0     2     0.000000     25.034975      4.072138     2.075884
  349     0     2     0.000000     25.464918      4.106607     3.518540
  350     0     3     0.000000     25.463843      5.468066     4.199388
  351     0     2     0.000000     26.272628      6.538972     3.512257
  352     0     1     0.000000     25.317093     16.713828    -0.623180
  353     0     2     0.000000     25.317243     15.293768    -0.119439
  354     0     2     0.000000     24.915134     14.104729    -1.024147
  355     0     2     0.000000     25.129884     12.997078    -0.020448
  356     0     2     0.000000     24.937986     11.481045     0.013834
  357     0     2     0.000000     25.022276     11.101182     1.532015
  358     0     2     0.000000     25.483804      9.687327     1.639682
  359     0     2     0.000000     25.398874      8.893922     2.931560
  360     0     3     0.000000     25.654042      7.451799     2.520562
  361     0     1     0.000000     24.749137      6.863924     1.470417
  362     1     1     0.000000      8.438467     22.589841     1.145056
  363     1     2     0.000000      9.409469     21.871659     2.081005
  364     1     2     0.000000      8.671760     21.486156     3.359927
  365     1     2     0.000000      9.668039     21.120873     4.450592
  366     1     2     0.000000      8.947897     20.873395     5.767654
  367     1     2     0.000000      9.912408     20.348012     6.808068
  368     1     2     0.000000      9.227523     19.717183     8.008125
  369     1     2     0.000000     10.090867     19.573942     9.269754
  370     1     3     0.000000      9.994708     18.204449     9.919119
  371     1     1     0.000000      9.892280     17.010540     8.984293
  372     1     2     0.000000     11.148293     17.989743    10.884877
  373     1     2     0.000000     10.741681     16.950183    11.936588
  374     1     2     0.000000     11.788898     17.110670    13.040798
  375     1     2     0.000000     12.707951     15.792617    12.611226
  376     1     2     0.000000     10.813869     15.765787    15.223186
  377     1     2     0.000000     11.826318     14.726328    15.781095
  378     1     2     0.000000     10.926499     14.878991    17.016339
  379     1     2     0.000000     10.699679     13.832032    18.033222
  380     1     2     0.000000      9.390487     14.154100    18.733180
  381     1     1     0.000000      8.922562     13.120255    19.738662
  382     2     1     0.000000      8.575107     20.527794    -5.864371
  383     2     2     0.000000      9.106432     20.601395    -4.446224
  384     2     2     0.000000      9.070256     19.294283    -3.661528
  385     2     2     0.000000      9.411159     19.648152    -2.205594
  386     2     2     0.000000      9.480160     18.419922    -1.329828
  387     2     2     0.000000      9.915382     18.655862     0.120573
  388     2     2     0.000000     10.120959     17.257189     0.672647
  389     2     2     0.000000     10.659310     17.059391     2.049169
  390     2     3     0.000000     11.690757     15.981501     2.209191
  391     2     1     0.000000     11.434570     14.533334     1.938516
  392     2     2     0.000000     12.742642     16.309111     3.212598
  393     2     2     0.000000     12.616382     15.518313     4.487950
  394     2     2     0.000000     13.009895     16.376662     5.720076
  395     2     2     0.000000     12.293369     15.617396     6.772840
  396     2     2     0.000000     12.087658     14.876834     8.127040
  397     2     2     0.000000     13.458735     12.577710     9.045085
  398     2     2     0.000000     12.459449     13.237239     6.811853
  399     2     2     0.000000     13.745356     11.571802    11.222280
  400     2     2     0.000000     12.424210     10.902463    10.739090
  401     2     1     0.000000     13.840954     10.476577    11.280566
  402     3     1     0.000000      4.465583      0.977705    34.304694
  403     3     2     0.000000      4.341671      1.323582    32.835274
  404     3     2     0.000000      5.274310      1.219487    31.664107