LAMMPS data file of the system for full atom style

      60 atoms
      50 bonds
      50 angles
      30 dihedrals

    3 atom types
    1 bond types
    2 angle types
    2 dihedral types

    0.000000    10.616800 xlo xhi
    0.000000    10.616800 ylo yhi
    0.000000    10.616800 zlo zhi

 Masses 

    1    15.034220
    2    14.026380
    3    13.018540

 Pair Coeffs 

    1     0.194746     3.750000    14.000000
    2     0.091411     3.950000    14.000000
    3     0.019872     4.680000    14.000000

 Bond Coeffs 

    1   450.002259      1.540000

 Angle Coeffs 

    1    62.100113    114.000000
    2    62.100113    112.000000

 Dihedral Coeffs 

    1     4    0.0000000     0     90    0.7055169     1     0   -0.1355074     2   180    1.5725140     3     0
    2     4   -0.4989073     0     90    0.8519738     1     0   -0.2222687     2   180    0.8768933     3     0

 Atoms 

    1     0     1     0.000000      1.618304      8.912107    -2.014018
    2     0     3     0.000000      2.041774      9.445849    -0.646681
    3     0     2     0.000000      0.951402     10.383024    -0.167611
    4     0     2     0.000000      0.986384     10.769398     1.296465
    5     0     1     0.000000     -0.146805     11.736957     1.601630
    6     0     1     0.000000      3.391307     10.145530    -0.773534
    7     1     1     0.000000      5.350222      7.144153     9.823096
    8     1     3     0.000000      4.014149      6.414868     9.749790
    9     1     2     0.000000      4.037799      5.161794    10.615260
   10     1     2     0.000000      2.642361      4.632426    10.901325
   11     1     1     0.000000      2.668083      3.288649    11.604119
   12     1     1     0.000000      3.681716      6.119490     8.293020
   13     2     1     0.000000     12.424106      0.636899     6.228712
   14     2     3     0.000000     11.918830      1.793564     5.368747
   15     2     2     0.000000     10.450278      1.533217     5.095774
   16     2     2     0.000000      9.661483      2.713599     4.557669
   17     2     1     0.000000      8.238510      2.214347     4.328427
   18     2     1     0.000000     12.744740      1.854529     4.090006
   19     3     1     0.000000      6.815835      6.795747     6.482190
   20     3     3     0.000000      8.254868      6.984569     6.024562
   21     3     2     0.000000      8.512169      8.448358     5.721979
   22     3     2     0.000000      9.970556      8.844258     5.576333
   23     3     1     0.000000     10.446256      8.754468     4.133451
   24     3     1     0.000000      8.561820      6.028814     4.883838
   25     4     1     0.000000      6.635246     -0.717949     8.165413
   26     4     3     0.000000      7.858859     -0.336324     8.974009
   27     4     2     0.000000      8.787091      0.574951     8.185622
   28     4     2     0.000000      9.362103      1.643838     9.106750
   29     4     1     0.000000     10.487467      2.412134     8.440920
   30     4     1     0.000000      8.574709     -1.583209     9.471860
   31     5     1     0.000000      5.947435      4.862786     2.974855
   32     5     3     0.000000      5.055882      4.697610     4.206803
   33     5     2     0.000000      3.634177      5.065660     3.820662
   34     5     2     0.000000      2.689243      5.314137     4.985793
   35     5     1     0.000000      1.311146      5.626938     4.411424
   36     5     1     0.000000      5.128845      3.247899     4.677154
   37     6     1     0.000000      7.282219      2.227605     1.223802
   38     6     3     0.000000      6.449558      0.953332     1.232017
   39     6     2     0.000000      7.198681     -0.154795     1.958586
   40     6     2     0.000000      6.627340     -1.532080     1.658683
   41     6     1     0.000000      7.401786     -2.617455     2.385124
   42     6     1     0.000000      5.088832      1.254246     1.844162
   43     7     1     0.000000      7.178084      4.445735     9.445102
   44     7     3     0.000000      6.380838      3.833502     8.299832
   45     7     2     0.000000      5.670355      2.581203     8.786886
   46     7     2     0.000000      4.569087      2.053581     7.885867
   47     7     1     0.000000      3.308816      2.903433     7.951331
   48     7     1     0.000000      7.335783      3.551834     7.149537
   49     8     1     0.000000     -1.041356      4.879475    12.352241
   50     8     3     0.000000     -0.869618      5.984770    11.309608
   51     8     2     0.000000     -0.332992      5.357820    10.032503
   52     8     2     0.000000     -0.375750      6.253496     8.807557
   53     8     1     0.000000      0.316040      5.573018     7.635064
   54     8     1     0.000000      0.080315      7.043027    11.865928
   55     9     1     0.000000      4.135170      8.729748     6.443660
   56     9     3     0.000000      4.535499      8.992714     4.992569
   57     9     2     0.000000      3.231111      9.127005     4.221935
   58     9     2     0.000000      3.330947      9.151177     2.716017
   59     9     1     0.000000      3.511543      7.772051     2.116690
   60     9     1     0.000000      5.358223     10.281284     4.959799

 Bonds 

    1     1     1     2
    2     1     2     3
    3     1     2     6
    4     1     3     4
    5     1     4     5
    6     1     7     8
    7     1     8     9
    8     1     8    12
    9     1     9    10
   10     1    10    11
   11     1    13    14
   12     1    14    15
   13     1    14    18
   14     1    15    16
   15     1    16    17
   16     1    19    20
   17     1    20    21
   18     1    20    24
   19     1    21    22
   20     1    22    23
   21     1    25    26
   22     1    26    27
   23     1    26    30
   24     1    27    28
   25     1    28    29
   26     1    31    32
   27     1    32    33
   28     1    32    36
   29     1    33    34
   30     1    34    35
   31     1    37    38
   32     1    38    39
   33     1    38    42
   34     1    39    40
   35     1    40    41
   36     1    43    44
   37     1    44    45
   38     1    44    48
   39     1    45    46
   40     1    46    47
   41     1    49    50
   42     1    50    51
   43     1    50    54
   44     1    51    52
   45     1    52    53
   46     1    55    56
   47     1    56    57
   48     1    56    60
   49     1    57    58
   50     1    58    59

 Angles 

    1     2     1     2     3
    2     2     1     2     6
    3     2     3     2     6
    4     1     2     3     4
    5     1     3     4     5
    6     2     7     8     9
    7     2     7     8    12
    8     2     9     8    12
    9     1     8     9    10
   10     1     9    10    11
   11     2    13    14    15
   12     2    13    14    18
   13     2    15    14    18
   14     1    14    15    16
   15     1    15    16    17
   16     2    19    20    21
   17     2    19    20    24
   18     2    21    20    24
   19     1    20    21    22
   20     1    21    22    23
   21     2    25    26    27
   22     2    25    26    30
   23     2    27    26    30
   24     1    26    27    28
   25     1    27    28    29
   26     2    31    32    33
   27     2    31    32    36
   28     2    33    32    36
   29     1    32    33    34
   30     1    33    34    35
   31     2    37    38    39
   32     2    37    38    42
   33     2    39    38    42
   34     1    38    39    40
   35     1    39    40    41
   36     2    43    44    45
   37     2    43    44    48
   38     2    45    44    48
   39     1    44    45    46
   40     1    45    46    47
   41     2    49    50    51
   42     2    49    50    54
   43     2    51    50    54
   44     1    50    51    52
   45     1    51    52    53
   46     2    55    56    57
   47     2    55    56    60
   48     2    57    56    60
   49     1    56    57    58
   50     1    57    58    59

 Dihedrals 

    1     2     1     2     3     4
    2     2     6     2     3     4
    3     1     2     3     4     5
    4     2     7     8     9    10
    5     2    12     8     9    10
    6     1     8     9    10    11
    7     2    13    14    15    16
    8     2    18    14    15    16
    9     1    14    15    16    17
   10     2    19    20    21    22
   11     2    24    20    21    22
   12     1    20    21    22    23
   13     2    25    26    27    28
   14     2    30    26    27    28
   15     1    26    27    28    29
   16     2    31    32    33    34
   17     2    36    32    33    34
   18     1    32    33    34    35
   19     2    37    38    39    40
   20     2    42    38    39    40
   21     1    38    39    40    41
   22     2    43    44    45    46
   23     2    48    44    45    46
   24     1    44    45    46    47
   25     2    49    50    51    52
   26     2    54    50    51    52
   27     1    50    51    52    53
   28     2    55    56    57    58
   29     2    60    56    57    58
   30     1    56    57    58    59
