LAMMPS 2005 data file for methylpentaneAA

    200 atoms
    190 bonds
    360 angles
    450 dihedrals

   4 atom types
   7 bond types
  13 angle types
  13 dihedral types

     0.000000000    24.278100000 xlo xhi
     0.000000000    24.278100000 ylo yhi
     0.000000000    24.278100000 zlo zhi

Masses

   1  12.011150  # c3
   2  12.011150  # c1
   3  12.011150  # c2
   4   1.007970  # h

Pair Coeffs

   1   0.0660000000   3.5000000000   # c3
   2   0.0660000000   3.5000000000   # c1
   3   0.0660000000   3.5000000000   # c2
   4   0.0300000000   2.5000000000   # h

Bond Coeffs

  1   268.0000     1.5290     # c3-c1 
  2   340.0000     1.0900     # c3-h 
  3   268.0000     1.5290     # c1-c2 
  4   340.0000     1.0900     # c1-h 
  5   268.0000     1.5290     # c2-c2 
  6   340.0000     1.0900     # c2-h 
  7   268.0000     1.5290     # c3-c2 

Angle Coeffs

  1    37.5000   110.7000    # c1-c3-h
  2    33.0000   107.8000    # h-c3-h
  3    58.3500   112.7000    # c3-c1-c2
  4    58.3500   112.7000    # c3-c1-c3
  5    37.5000   110.7000    # c3-c1-h
  6    37.5000   110.7000    # c2-c1-h
  7    58.3500   112.7000    # c1-c2-c2
  8    37.5000   110.7000    # c1-c2-h
  9    37.5000   110.7000    # c2-c2-h
 10    33.0000   107.8000    # h-c2-h
 11    58.3500   112.7000    # c3-c2-c2
 12    37.5000   110.7000    # c3-c2-h
 13    37.5000   110.7000    # c2-c3-h

Dihedral Coeffs

  1     0.0000     0.0000     0.3000     0.0000     # h-c3-c1-c2
  2     0.0000     0.0000     0.3000     0.0000     # h-c3-c1-c3
  3     0.0000     0.0000     0.3000     0.0000     # h-c3-c1-h
  4     1.3000    -0.0500     0.2000     0.0000     # c3-c1-c2-c2
  5     0.0000     0.0000     0.3000     0.0000     # c3-c1-c2-h
  6     0.0000     0.0000     0.3000     0.0000     # h-c1-c2-c2
  7     0.0000     0.0000     0.3000     0.0000     # h-c1-c2-h
  8     1.3000    -0.0500     0.2000     0.0000     # c3-c2-c2-c1
  9     0.0000     0.0000     0.3000     0.0000     # c1-c2-c2-h
 10     0.0000     0.0000     0.3000     0.0000     # c3-c2-c2-h
 11     0.0000     0.0000     0.3000     0.0000     # h-c2-c2-h
 12     0.0000     0.0000     0.3000     0.0000     # h-c3-c2-c2
 13     0.0000     0.0000     0.3000     0.0000     # h-c3-c2-h

Atoms

      1      0   1 -0.300000    12.284055676    19.292569216     9.060768817     # c3
      2      0   2 -0.100000    11.292641411    18.838381827    10.146890396     # c1
      3      0   3 -0.200000    10.132210078    19.850333571    10.242999180     # c2
      4      0   3 -0.200000     8.935380528    19.358387865    11.071356966     # c2
      5      0   1 -0.300000     7.791662564    20.370884051    11.049451976     # c3
      6      0   1 -0.300000    12.054254946    18.690224662    11.467905528     # c3
      7      0   4  0.100000    11.796878679    19.377724498     8.073158191     # h
      8      0   4  0.100000    13.113381461    18.571275872     8.941202112     # h
      9      0   4  0.100000    12.736473453    20.276324865     9.287938431     # h
     10      0   4  0.100000    10.892783449    17.847060885     9.846387564     # h
     11      0   4  0.100000     9.773637071    20.080030417     9.218731875     # h
     12      0   4  0.100000    10.500929840    20.815593266    10.642554866     # h
     13      0   4  0.100000     9.236954066    19.167282017    12.118311729     # h
     14      0   4  0.100000     8.575421549    18.385491858    10.681669775     # h
     15      0   4  0.100000     7.424294666    20.561988352    10.026198715     # h
     16      0   4  0.100000     8.088695892    21.345176721    11.478466798     # h
     17      0   4  0.100000     6.927032742    20.014352782    11.636199010     # h
     18      0   4  0.100000    12.492186101    19.645776617    11.808800387     # h
     19      0   4  0.100000    12.889126429    17.968215340    11.380732791     # h
     20      0   4  0.100000    11.407829760    18.325046502    12.285465617     # h
     21      1   1 -0.300000    26.544290231    15.606748393     1.356691695     # c3
     22      1   2 -0.100000    26.543819546    14.635535277     2.550174501     # c1
     23      1   3 -0.200000    25.198066961    13.881673044     2.600495767     # c2
     24      1   3 -0.200000    25.177232186    12.693739536     3.576943946     # c2
     25      1   1 -0.300000    23.840064369    11.951664558     3.524033950     # c3
     26      1   1 -0.300000    26.825580192    15.433377482     3.828533276     # c3
     27      1   4  0.100000    26.388351711    15.077516939     0.398884891     # h
     28      1   4  0.100000    27.508846566    16.141496356     1.263820885     # h
     29      1   4  0.100000    25.752741977    16.374783631     1.439645593     # h
     30      1   4  0.100000    27.364239230    13.904678015     2.391080659     # h
     31      1   4  0.100000    24.966318931    13.498679345     1.585437687     # h
     32      1   4  0.100000    24.377113479    14.587217446     2.838116100     # h
     33      1   4  0.100000    25.362075868    13.037794670     4.612582550     # h
     34      1   4  0.100000    26.002439294    11.992488943     3.339001322     # h
     35      1   4  0.100000    23.628867125    11.543905630     2.517783446     # h
     36      1   4  0.100000    22.990640538    12.605179588     3.796330144     # h
     37      1   4  0.100000    23.826194678    11.098411994     4.226654860     # h
     38      1   4  0.100000    26.029733105    16.169541064     4.048717995     # h
     39      1   4  0.100000    27.780346822    15.989090268     3.761668348     # h
     40      1   4  0.100000    26.913930714    14.777894509     4.712323786     # h
     41      2   1 -0.300000     4.297727051     1.298227650    12.581631587     # c3
     42      2   2 -0.100000     5.363813465     0.719602922    11.637954133     # c1
     43      2   3 -0.200000     4.781718482    -0.498746954    10.888014407     # c2
     44      2   3 -0.200000     5.621412355    -0.952410440     9.682570617     # c2
     45      2   1 -0.300000     4.967058372    -2.133788644     8.964817734     # c3
     46      2   1 -0.300000     6.603331259     0.360245767    12.466825155     # c3
     47      2   4  0.100000     3.396327441     1.623888598    12.030677188     # h
     48      2   4  0.100000     4.670657942     2.190893137    13.119804915     # h
     49      2   4  0.100000     3.968116162     0.566924840    13.343254259     # h
     50      2   4  0.100000     5.634277375     1.508726343    10.905401220     # h
     51      2   4  0.100000     3.766314044    -0.245390810    10.522659514     # h
     52      2   4  0.100000     4.635470569    -1.341492369    11.592927541     # h
     53      2   4  0.100000     6.644036131    -1.233359355    10.000158570     # h
     54      2   4  0.100000     5.751416121    -0.112986737     8.971979153     # h
     55      2   4  0.100000     3.962738938    -1.879722071     8.579249998     # h
     56      2   4  0.100000     4.851211973    -3.010557545     9.629950950     # h
     57      2   4  0.100000     5.571684381    -2.464156251     8.099494811     # h
     58      2   4  0.100000     6.387360633    -0.406349411    13.232543138     # h
     59      2   4  0.100000     7.006498525     1.244140666    12.996910904     # h
     60      2   4  0.100000     7.424140181    -0.027701439    11.841467985     # h
     61      3   1 -0.300000     7.157288631    21.042979386    14.706209630     # c3
     62      3   2 -0.100000     8.298244036    20.873862436    15.725861625     # c1
     63      3   3 -0.200000     9.580542383    20.418774704    14.997883567     # c2
     64      3   3 -0.200000    10.852811882    20.512276950    15.856030960     # c2
     65      3   1 -0.300000    12.093611197    20.108452037    15.059697193     # c3
     66      3   1 -0.300000     7.844076880    19.882208298    16.804907946     # c3
     67      3   4  0.100000     7.421929068    21.777041800    13.921945049     # h
     68      3   4  0.100000     6.233254475    21.414830647    15.185579963     # h
     69      3   4  0.100000     6.905982673    20.095435671    14.193714132     # h
     70      3   4  0.100000     8.477261726    21.864197463    16.196607574     # h
     71      3   4  0.100000     9.724108760    21.045379958    14.093965595     # h
     72      3   4  0.100000     9.452239340    19.387287708    14.610790078     # h
     73      3   4  0.100000    10.765098990    19.867069649    16.752344392     # h
     74      3   4  0.100000    10.977741434    21.543931006    16.243047017     # h
     75      3   4  0.100000    12.248824330    20.749315766    14.171301114     # h
     76      3   4  0.100000    12.038073088    19.064239465    14.703394071     # h
     77      3   4  0.100000    13.008222772    20.185711235    15.676128306     # h
     78      3   4  0.100000     7.645241545    18.875077171    16.391871928     # h
     79      3   4  0.100000     6.916012608    20.222664554    17.302384391     # h
     80      3   4  0.100000     8.597127817    19.762939900    17.604932679     # h
     81      4   1 -0.300000    25.848281032     9.998944694    20.108520434     # c3
     82      4   2 -0.100000    25.038841146     8.795401803    19.595636323     # c1
     83      4   3 -0.200000    23.546683980     9.182605472    19.493855167     # c2
     84      4   3 -0.200000    22.682395882     8.162886295    18.735564119     # c2
     85      4   1 -0.300000    21.219616109     8.607341377    18.670817411     # c3
     86      4   1 -0.300000    25.274750382     7.612118300    20.541529677     # c3
     87      4   4  0.100000    25.743299635    10.877957506    19.449226000     # h
     88      4   4  0.100000    26.929601932     9.774407602    20.163195539     # h
     89      4   4  0.100000    25.534444068    10.311875698    21.119155644     # h
     90      4   4  0.100000    25.421266970     8.534484735    18.586090919     # h
     91      4   4  0.100000    23.463903279    10.159087016    18.972759668     # h
     92      4   4  0.100000    23.132056782     9.361109268    20.505819218     # h
     93      4   4  0.100000    22.736861508     7.166492454    19.214549234     # h
     94      4   4  0.100000    23.072587862     8.022191238    17.709000958     # h
     95      4   4  0.100000    21.096312465     9.571910190    18.145017604     # h
     96      4   4  0.100000    20.776172499     8.723376905    19.676530050     # h
     97      4   4  0.100000    20.601219714     7.866682453    18.131713917     # h
     98      4   4  0.100000    24.903177988     7.812240339    21.563181052     # h
     99      4   4  0.100000    26.347678269     7.366511309    20.629069315     # h
    100      4   4  0.100000    24.774791124     6.692285375    20.190903941     # h
    101      5   1 -0.300000    16.524764376    18.081887300     9.395115981     # c3
    102      5   2 -0.100000    16.447585988    18.344542201    10.910680165     # c1
    103      5   3 -0.200000    15.909078300    19.771263210    11.155738794     # c2
    104      5   3 -0.200000    15.562572988    20.078411417    12.622587068     # c2
    105      5   1 -0.300000    14.975076754    21.484356294    12.767965328     # c3
    106      5   1 -0.300000    17.841330786    18.120098100    11.509577902     # c3
    107      5   4  0.100000    15.536643921    18.182204073     8.910662173     # h
    108      5   4  0.100000    16.880790352    17.057678298     9.175210553     # h
    109      5   4  0.100000    17.209369828    18.783366320     8.881105230     # h
    110      5   4  0.100000    15.740963309    17.606690994    11.349127615     # h
    111      5   4  0.100000    14.994164531    19.914418202    10.546572086     # h
    112      5   4  0.100000    16.630168455    20.520577567    10.773112789     # h
    113      5   4  0.100000    16.462268682    19.990923552    13.261876945     # h
    114      5   4  0.100000    14.841673997    19.333472670    13.012761810     # h
    115      5   4  0.100000    14.041246813    21.607014045    12.188683144     # h
    116      5   4  0.100000    15.681695680    22.264614749    12.426573162     # h
    117      5   4  0.100000    14.729670571    21.710817501    13.820789112     # h
    118      5   4  0.100000    18.587870910    18.833281087    11.117052622     # h
    119      5   4  0.100000    18.219194372    17.104435006    11.292476766     # h
    120      5   4  0.100000    17.841621780    18.224852893    12.609663950     # h
    121      6   1 -0.300000     4.569736579    23.874626000    16.543690282     # c3
    122      6   2 -0.100000     5.920980786    24.075528618    17.252847642     # c1
    123      6   3 -0.200000     5.973840261    23.195421949    18.518853964     # c2
    124      6   3 -0.200000     7.366031810    23.096400219    19.161798042     # c2
    125      6   1 -0.300000     7.361514587    22.144529667    20.359370226     # c3
    126      6   1 -0.300000     6.089112918    25.567926067    17.559745069     # c3
    127      6   4  0.100000     4.409140739    22.821515101    16.253917722     # h
    128      6   4  0.100000     4.507049812    24.466375539    15.611816586     # h
    129      6   4  0.100000     3.714452848    24.171744300    17.178162419     # h
    130      6   4  0.100000     6.720398400    23.757951050    16.549851228     # h
    131      6   4  0.100000     5.637210657    22.171019657    18.256710345     # h
    132      6   4  0.100000     5.235722582    23.556401098    19.262151944     # h
    133      6   4  0.100000     7.717105065    24.094820253    19.487337100     # h
    134      6   4  0.100000     8.108358436    22.747624517    18.416518989     # h
    135      6   4  0.100000     7.068188700    21.116332984    20.073547869     # h
    136      6   4  0.100000     6.665737415    22.475789322    21.152854319     # h
    137      6   4  0.100000     8.363562744    22.075061436    20.820725674     # h
    138      6   4  0.100000     5.318450730    25.943065901    18.257736534     # h
    139      6   4  0.100000     6.023125886    26.181768180    16.643154569     # h
    140      6   4  0.100000     7.071413960    25.790121992    18.014521419     # h
    141      7   1 -0.300000     2.572515164     8.796912442     0.006010398     # c3
    142      7   2 -0.100000     2.831062147    10.279489454    -0.315140721     # c1
    143      7   3 -0.200000     3.958094384    10.820124010     0.591656716     # c2
    144      7   3 -0.200000     4.518450300    12.179516714     0.143938778     # c2
    145      7   1 -0.300000     5.656168546    12.644325740     1.052827939     # c3
    146      7   1 -0.300000     1.516511716    11.048328127    -0.144671498     # c3
    147      7   4  0.100000     3.471395879     8.174324962    -0.169979202     # h
    148      7   4  0.100000     1.769455071     8.377228680    -0.628488705     # h
    149      7   4  0.100000     2.269968791     8.642299551     1.057949970     # h
    150      7   4  0.100000     3.151837047    10.343089844    -1.376535875     # h
    151      7   4  0.100000     4.792676614    10.091358040     0.607017569     # h
    152      7   4  0.100000     3.606135548    10.877792407     1.640381424     # h
    153      7   4  0.100000     3.721386286    12.947985995     0.134781706     # h
    154      7   4  0.100000     4.881650083    12.114123986    -0.900328699     # h
    155      7   4  0.100000     6.501359991    11.930950638     1.063965695     # h
    156      7   4  0.100000     5.326060840    12.778280620     2.098580202     # h
    157      7   4  0.100000     6.061234406    13.615773672     0.715550962     # h
    158      7   4  0.100000     1.139224285    11.002484812     0.893099184     # h
    159      7   4  0.100000     0.717592857    10.650277388    -0.799305406     # h
    160      7   4  0.100000     1.625686178    12.118822980    -0.396686785     # h
    161      8   1 -0.300000     9.349315571    10.389617070    22.866916005     # c3
    162      8   2 -0.100000     7.859688272    10.559792277    22.518634318     # c1
    163      8   3 -0.200000     7.397192398     9.384596469    21.631187694     # c2
    164      8   3 -0.200000     5.869803370     9.282422020    21.475093781     # c2
    165      8   1 -0.300000     5.476064797     8.067458321    20.634889515     # c3
    166      8   1 -0.300000     7.670944410    11.921306060    21.838189311     # c3
    167      8   4  0.100000     9.539750813     9.440552569    23.400676989     # h
    168      8   4  0.100000     9.707972821    11.198503367    23.529859407     # h
    169      8   4  0.100000     9.994086347    10.395808463    21.968969751     # h
    170      8   4  0.100000     7.286181736    10.546742934    23.469345403     # h
    171      8   4  0.100000     7.762744007     8.435212948    22.071898552     # h
    172      8   4  0.100000     7.878488275     9.445747056    20.636033600     # h
    173      8   4  0.100000     5.460619178    10.199236618    21.009144088     # h
    174      8   4  0.100000     5.390838610     9.214785020    22.471145818     # h
    175      8   4  0.100000     5.822261943     7.119177685    21.083511348     # h
    176      8   4  0.100000     5.890554267     8.118277933    19.611582171     # h
    177      8   4  0.100000     4.379421772     7.989917104    20.532735520     # h
    178      8   4  0.100000     8.225166755    11.995429149    20.884529171     # h
    179      8   4  0.100000     8.021170351    12.748582286    22.482726900     # h
    180      8   4  0.100000     6.610793848    12.128879879    21.610664608     # h
    181      9   1 -0.300000    18.007862355     8.812938069    16.505527292     # c3
    182      9   2 -0.100000    18.993796976     8.628489686    15.337673224     # c1
    183      9   3 -0.200000    18.818714319     9.783707542    14.329065396     # c2
    184      9   3 -0.200000    19.927809563     9.864400078    13.266739124     # c2
    185      9   1 -0.300000    19.727732406    11.067002381    12.342937073     # c3
    186      9   1 -0.300000    18.749860854     7.250788581    14.710738180     # c3
    187      9   4  0.100000    18.166808293     9.771565612    17.031553634     # h
    188      9   4  0.100000    18.118279349     8.019309809    17.265536609     # h
    189      9   4  0.100000    16.954429544     8.794045467    16.170147483     # h
    190      9   4  0.100000    20.023008164     8.659652034    15.753533391     # h
    191      9   4  0.100000    18.802001834    10.743379364    14.885688131     # h
    192      9   4  0.100000    17.825290286     9.714963833    13.840150477     # h
    193      9   4  0.100000    19.955687640     8.938773368    12.660421242     # h
    194      9   4  0.100000    20.919941173     9.931750801    13.755736784     # h
    195      9   4  0.100000    19.743150789    12.024179716    12.894819037     # h
    196      9   4  0.100000    18.767881231    11.017418978    11.797755067     # h
    197      9   4  0.100000    20.525790441    11.122409652    11.580703415     # h
    198      9   4  0.100000    17.737219096     7.159236442    14.275277117     # h
    199      9   4  0.100000    18.861991834     6.439263566    15.453577914     # h
    200      9   4  0.100000    19.469798784     7.028231067    13.904080037     # h

Bonds

     1   1      1      2     # c3-h
     2   2      1      7     # c1-c2
     3   2      1      8     # c1-c2
     4   2      1      9     # c1-c2
     5   3      2      3     # c1-h
     6   1      6      2     # c3-h
     7   4      2     10     # c2-c2
     8   5      3      4     # c2-h
     9   6      3     11     # c3-c2
    10   6      3     12     # c3-c2
    11   7      5      4     # c3-c3
    12   6      4     13     # c3-c2
    13   6      4     14     # c3-c2
    14   2      5     15     # c1-c2
    15   2      5     16     # c1-c2
    16   2      5     17     # c1-c2
    17   2      6     18     # c1-c2
    18   2      6     19     # c1-c2
    19   2      6     20     # c1-c2
    20   1     21     22     # c3-h
    21   2     21     27     # c1-c2
    22   2     21     28     # c1-c2
    23   2     21     29     # c1-c2
    24   3     22     23     # c1-h
    25   1     26     22     # c3-h
    26   4     22     30     # c2-c2
    27   5     23     24     # c2-h
    28   6     23     31     # c3-c2
    29   6     23     32     # c3-c2
    30   7     25     24     # c3-c3
    31   6     24     33     # c3-c2
    32   6     24     34     # c3-c2
    33   2     25     35     # c1-c2
    34   2     25     36     # c1-c2
    35   2     25     37     # c1-c2
    36   2     26     38     # c1-c2
    37   2     26     39     # c1-c2
    38   2     26     40     # c1-c2
    39   1     41     42     # c3-h
    40   2     41     47     # c1-c2
    41   2     41     48     # c1-c2
    42   2     41     49     # c1-c2
    43   3     42     43     # c1-h
    44   1     46     42     # c3-h
    45   4     42     50     # c2-c2
    46   5     43     44     # c2-h
    47   6     43     51     # c3-c2
    48   6     43     52     # c3-c2
    49   7     45     44     # c3-c3
    50   6     44     53     # c3-c2
    51   6     44     54     # c3-c2
    52   2     45     55     # c1-c2
    53   2     45     56     # c1-c2
    54   2     45     57     # c1-c2
    55   2     46     58     # c1-c2
    56   2     46     59     # c1-c2
    57   2     46     60     # c1-c2
    58   1     61     62     # c3-h
    59   2     61     67     # c1-c2
    60   2     61     68     # c1-c2
    61   2     61     69     # c1-c2
    62   3     62     63     # c1-h
    63   1     66     62     # c3-h
    64   4     62     70     # c2-c2
    65   5     63     64     # c2-h
    66   6     63     71     # c3-c2
    67   6     63     72     # c3-c2
    68   7     65     64     # c3-c3
    69   6     64     73     # c3-c2
    70   6     64     74     # c3-c2
    71   2     65     75     # c1-c2
    72   2     65     76     # c1-c2
    73   2     65     77     # c1-c2
    74   2     66     78     # c1-c2
    75   2     66     79     # c1-c2
    76   2     66     80     # c1-c2
    77   1     81     82     # c3-h
    78   2     81     87     # c1-c2
    79   2     81     88     # c1-c2
    80   2     81     89     # c1-c2
    81   3     82     83     # c1-h
    82   1     86     82     # c3-h
    83   4     82     90     # c2-c2
    84   5     83     84     # c2-h
    85   6     83     91     # c3-c2
    86   6     83     92     # c3-c2
    87   7     85     84     # c3-c3
    88   6     84     93     # c3-c2
    89   6     84     94     # c3-c2
    90   2     85     95     # c1-c2
    91   2     85     96     # c1-c2
    92   2     85     97     # c1-c2
    93   2     86     98     # c1-c2
    94   2     86     99     # c1-c2
    95   2     86    100     # c1-c2
    96   1    101    102     # c3-h
    97   2    101    107     # c1-c2
    98   2    101    108     # c1-c2
    99   2    101    109     # c1-c2
   100   3    102    103     # c1-h
   101   1    106    102     # c3-h
   102   4    102    110     # c2-c2
   103   5    103    104     # c2-h
   104   6    103    111     # c3-c2
   105   6    103    112     # c3-c2
   106   7    105    104     # c3-c3
   107   6    104    113     # c3-c2
   108   6    104    114     # c3-c2
   109   2    105    115     # c1-c2
   110   2    105    116     # c1-c2
   111   2    105    117     # c1-c2
   112   2    106    118     # c1-c2
   113   2    106    119     # c1-c2
   114   2    106    120     # c1-c2
   115   1    121    122     # c3-h
   116   2    121    127     # c1-c2
   117   2    121    128     # c1-c2
   118   2    121    129     # c1-c2
   119   3    122    123     # c1-h
   120   1    126    122     # c3-h
   121   4    122    130     # c2-c2
   122   5    123    124     # c2-h
   123   6    123    131     # c3-c2
   124   6    123    132     # c3-c2
   125   7    125    124     # c3-c3
   126   6    124    133     # c3-c2
   127   6    124    134     # c3-c2
   128   2    125    135     # c1-c2
   129   2    125    136     # c1-c2
   130   2    125    137     # c1-c2
   131   2    126    138     # c1-c2
   132   2    126    139     # c1-c2
   133   2    126    140     # c1-c2
   134   1    141    142     # c3-h
   135   2    141    147     # c1-c2
   136   2    141    148     # c1-c2
   137   2    141    149     # c1-c2
   138   3    142    143     # c1-h
   139   1    146    142     # c3-h
   140   4    142    150     # c2-c2
   141   5    143    144     # c2-h
   142   6    143    151     # c3-c2
   143   6    143    152     # c3-c2
   144   7    145    144     # c3-c3
   145   6    144    153     # c3-c2
   146   6    144    154     # c3-c2
   147   2    145    155     # c1-c2
   148   2    145    156     # c1-c2
   149   2    145    157     # c1-c2
   150   2    146    158     # c1-c2
   151   2    146    159     # c1-c2
   152   2    146    160     # c1-c2
   153   1    161    162     # c3-h
   154   2    161    167     # c1-c2
   155   2    161    168     # c1-c2
   156   2    161    169     # c1-c2
   157   3    162    163     # c1-h
   158   1    166    162     # c3-h
   159   4    162    170     # c2-c2
   160   5    163    164     # c2-h
   161   6    163    171     # c3-c2
   162   6    163    172     # c3-c2
   163   7    165    164     # c3-c3
   164   6    164    173     # c3-c2
   165   6    164    174     # c3-c2
   166   2    165    175     # c1-c2
   167   2    165    176     # c1-c2
   168   2    165    177     # c1-c2
   169   2    166    178     # c1-c2
   170   2    166    179     # c1-c2
   171   2    166    180     # c1-c2
   172   1    181    182     # c3-h
   173   2    181    187     # c1-c2
   174   2    181    188     # c1-c2
   175   2    181    189     # c1-c2
   176   3    182    183     # c1-h
   177   1    186    182     # c3-h
   178   4    182    190     # c2-c2
   179   5    183    184     # c2-h
   180   6    183    191     # c3-c2
   181   6    183    192     # c3-c2
   182   7    185    184     # c3-c3
   183   6    184    193     # c3-c2
   184   6    184    194     # c3-c2
   185   2    185    195     # c1-c2
   186   2    185    196     # c1-c2
   187   2    185    197     # c1-c2
   188   2    186    198     # c1-c2
   189   2    186    199     # c1-c2
   190   2    186    200     # c1-c2

Angles

     1   1      2      1      7     # h-c3-h
     2   1      2      1      8     # h-c3-h
     3   1      2      1      9     # h-c3-h
     4   2      7      1      8     # c3-c1-c2
     5   2      7      1      9     # c3-c1-c2
     6   2      8      1      9     # c3-c1-c2
     7   3      1      2      3     # c3-c1-c3
     8   4      1      2      6     # c3-c1-h
     9   5      1      2     10     # c2-c1-h
    10   3      6      2      3     # c3-c1-c3
    11   6      3      2     10     # c1-c2-c2
    12   5      6      2     10     # c2-c1-h
    13   7      2      3      4     # c1-c2-h
    14   8      2      3     11     # c2-c2-h
    15   8      2      3     12     # c2-c2-h
    16   9      4      3     11     # h-c2-h
    17   9      4      3     12     # h-c2-h
    18  10     11      3     12     # c3-c2-c2
    19  11      5      4      3     # c3-c2-h
    20   9      3      4     13     # h-c2-h
    21   9      3      4     14     # h-c2-h
    22  12      5      4     13     # c2-c3-h
    23  12      5      4     14     # c2-c3-h
    24  10     13      4     14     # c3-c2-c2
    25  13      4      5     15     # c3-c3-c3
    26  13      4      5     16     # c3-c3-c3
    27  13      4      5     17     # c3-c3-c3
    28   2     15      5     16     # c3-c1-c2
    29   2     15      5     17     # c3-c1-c2
    30   2     16      5     17     # c3-c1-c2
    31   1      2      6     18     # h-c3-h
    32   1      2      6     19     # h-c3-h
    33   1      2      6     20     # h-c3-h
    34   2     18      6     19     # c3-c1-c2
    35   2     18      6     20     # c3-c1-c2
    36   2     19      6     20     # c3-c1-c2
    37   1     22     21     27     # h-c3-h
    38   1     22     21     28     # h-c3-h
    39   1     22     21     29     # h-c3-h
    40   2     27     21     28     # c3-c1-c2
    41   2     27     21     29     # c3-c1-c2
    42   2     28     21     29     # c3-c1-c2
    43   3     21     22     23     # c3-c1-c3
    44   4     21     22     26     # c3-c1-h
    45   5     21     22     30     # c2-c1-h
    46   3     26     22     23     # c3-c1-c3
    47   6     23     22     30     # c1-c2-c2
    48   5     26     22     30     # c2-c1-h
    49   7     22     23     24     # c1-c2-h
    50   8     22     23     31     # c2-c2-h
    51   8     22     23     32     # c2-c2-h
    52   9     24     23     31     # h-c2-h
    53   9     24     23     32     # h-c2-h
    54  10     31     23     32     # c3-c2-c2
    55  11     25     24     23     # c3-c2-h
    56   9     23     24     33     # h-c2-h
    57   9     23     24     34     # h-c2-h
    58  12     25     24     33     # c2-c3-h
    59  12     25     24     34     # c2-c3-h
    60  10     33     24     34     # c3-c2-c2
    61  13     24     25     35     # c3-c3-c3
    62  13     24     25     36     # c3-c3-c3
    63  13     24     25     37     # c3-c3-c3
    64   2     35     25     36     # c3-c1-c2
    65   2     35     25     37     # c3-c1-c2
    66   2     36     25     37     # c3-c1-c2
    67   1     22     26     38     # h-c3-h
    68   1     22     26     39     # h-c3-h
    69   1     22     26     40     # h-c3-h
    70   2     38     26     39     # c3-c1-c2
    71   2     38     26     40     # c3-c1-c2
    72   2     39     26     40     # c3-c1-c2
    73   1     42     41     47     # h-c3-h
    74   1     42     41     48     # h-c3-h
    75   1     42     41     49     # h-c3-h
    76   2     47     41     48     # c3-c1-c2
    77   2     47     41     49     # c3-c1-c2
    78   2     48     41     49     # c3-c1-c2
    79   3     41     42     43     # c3-c1-c3