ITEM: TIMESTEP
0
ITEM: NUMBER OF ATOMS
200
ITEM: BOX BOUNDS pp pp pp
0.0000000000000000e+00 2.4278099999999998e+01
0.0000000000000000e+00 2.4278099999999998e+01
0.0000000000000000e+00 2.4278099999999998e+01
ITEM: ATOMS id mol type xu yu zu 
1 0 1 12.2841 19.2926 9.06077 
2 0 2 11.2926 18.8384 10.1469 
3 0 3 10.1322 19.8503 10.243 
4 0 3 8.93538 19.3584 11.0714 
5 0 1 7.79166 20.3709 11.0495 
6 0 1 12.0543 18.6902 11.4679 
7 0 4 11.7969 19.3777 8.07316 
8 0 4 13.1134 18.5713 8.9412 
9 0 4 12.7365 20.2763 9.28794 
10 0 4 10.8928 17.8471 9.84639 
11 0 4 9.77364 20.08 9.21873 
12 0 4 10.5009 20.8156 10.6426 
13 0 4 9.23695 19.1673 12.1183 
14 0 4 8.57542 18.3855 10.6817 
15 0 4 7.42429 20.562 10.0262 
16 0 4 8.0887 21.3452 11.4785 
17 0 4 6.92703 20.0144 11.6362 
18 0 4 12.4922 19.6458 11.8088 
19 0 4 12.8891 17.9682 11.3807 
20 0 4 11.4078 18.325 12.2855 
21 1 1 26.5443 15.6067 1.35669 
22 1 2 26.5438 14.6355 2.55017 
23 1 3 25.1981 13.8817 2.6005 
24 1 3 25.1772 12.6937 3.57694 
25 1 1 23.8401 11.9517 3.52403 
26 1 1 26.8256 15.4334 3.82853 
27 1 4 26.3884 15.0775 0.398885 
28 1 4 27.5088 16.1415 1.26382 
29 1 4 25.7527 16.3748 1.43965 
30 1 4 27.3642 13.9047 2.39108 
31 1 4 24.9663 13.4987 1.58544 
32 1 4 24.3771 14.5872 2.83812 
33 1 4 25.3621 13.0378 4.61258 
34 1 4 26.0024 11.9925 3.339 
35 1 4 23.6289 11.5439 2.51778 
36 1 4 22.9906 12.6052 3.79633 
37 1 4 23.8262 11.0984 4.22665 
38 1 4 26.0297 16.1695 4.04872 
39 1 4 27.7803 15.9891 3.76167 
40 1 4 26.9139 14.7779 4.71232 
41 2 1 4.29773 1.29823 12.5816 
42 2 2 5.36381 0.719603 11.638 
43 2 3 4.78172 -0.498747 10.888 
44 2 3 5.62141 -0.95241 9.68257 
45 2 1 4.96706 -2.13379 8.96482 
46 2 1 6.60333 0.360246 12.4668 
47 2 4 3.39633 1.62389 12.0307 
48 2 4 4.67066 2.19089 13.1198 
49 2 4 3.96812 0.566925 13.3433 
50 2 4 5.63428 1.50873 10.9054 
51 2 4 3.76631 -0.245391 10.5227 
52 2 4 4.63547 -1.34149 11.5929 
53 2 4 6.64404 -1.23336 10.0002 
54 2 4 5.75142 -0.112987 8.97198 
55 2 4 3.96274 -1.87972 8.57925 
56 2 4 4.85121 -3.01056 9.62995 
57 2 4 5.57168 -2.46416 8.09949 
58 2 4 6.38736 -0.406349 13.2325 
59 2 4 7.0065 1.24414 12.9969 
60 2 4 7.42414 -0.0277014 11.8415 
61 3 1 7.15729 21.043 14.7062 
62 3 2 8.29824 20.8739 15.7259 
63 3 3 9.58054 20.4188 14.9979 
64 3 3 10.8528 20.5123 15.856 
65 3 1 12.0936 20.1085 15.0597 
66 3 1 7.84408 19.8822 16.8049 
67 3 4 7.42193 21.777 13.9219 
68 3 4 6.23325 21.4148 15.1856 
69 3 4 6.90598 20.0954 14.1937 
70 3 4 8.47726 21.8642 16.1966 
71 3 4 9.72411 21.0454 14.094 
72 3 4 9.45224 19.3873 14.6108 
73 3 4 10.7651 19.8671 16.7523 
74 3 4 10.9777 21.5439 16.243 
75 3 4 12.2488 20.7493 14.1713 
76 3 4 12.0381 19.0642 14.7034 
77 3 4 13.0082 20.1857 15.6761 
78 3 4 7.64524 18.8751 16.3919 
79 3 4 6.91601 20.2227 17.3024 
80 3 4 8.59713 19.7629 17.6049 
81 4 1 25.8483 9.99894 20.1085 
82 4 2 25.0388 8.7954 19.5956 
83 4 3 23.5467 9.18261 19.4939 
84 4 3 22.6824 8.16289 18.7356 
85 4 1 21.2196 8.60734 18.6708 
86 4 1 25.2748 7.61212 20.5415 
87 4 4 25.7433 10.878 19.4492 
88 4 4 26.9296 9.77441 20.1632 
89 4 4 25.5344 10.3119 21.1192 
90 4 4 25.4213 8.53448 18.5861 
91 4 4 23.4639 10.1591 18.9728 
92 4 4 23.1321 9.36111 20.5058 
93 4 4 22.7369 7.16649 19.2145 
94 4 4 23.0726 8.02219 17.709 
95 4 4 21.0963 9.57191 18.145 
96 4 4 20.7762 8.72338 19.6765 
97 4 4 20.6012 7.86668 18.1317 
98 4 4 24.9032 7.81224 21.5632 
99 4 4 26.3477 7.36651 20.6291 
100 4 4 24.7748 6.69229 20.1909 
101 5 1 16.5248 18.0819 9.39512 
102 5 2 16.4476 18.3445 10.9107 
103 5 3 15.9091 19.7713 11.1557 
104 5 3 15.5626 20.0784 12.6226 
105 5 1 14.9751 21.4844 12.768 
106 5 1 17.8413 18.1201 11.5096 
107 5 4 15.5366 18.1822 8.91066 
108 5 4 16.8808 17.0577 9.17521 
109 5 4 17.2094 18.7834 8.88111 
110 5 4 15.741 17.6067 11.3491 
111 5 4 14.9942 19.9144 10.5466 
112 5 4 16.6302 20.5206 10.7731 
113 5 4 16.4623 19.9909 13.2619 
114 5 4 14.8417 19.3335 13.0128 
115 5 4 14.0412 21.607 12.1887 
116 5 4 15.6817 22.2646 12.4266 
117 5 4 14.7297 21.7108 13.8208 
118 5 4 18.5879 18.8333 11.1171 
119 5 4 18.2192 17.1044 11.2925 
120 5 4 17.8416 18.2249 12.6097 
121 6 1 4.56974 23.8746 16.5437 
122 6 2 5.92098 24.0755 17.2528 
123 6 3 5.97384 23.1954 18.5189 
124 6 3 7.36603 23.0964 19.1618 
125 6 1 7.36151 22.1445 20.3594 
126 6 1 6.08911 25.5679 17.5597 
127 6 4 4.40914 22.8215 16.2539 
128 6 4 4.50705 24.4664 15.6118 
129 6 4 3.71445 24.1717 17.1782 
130 6 4 6.7204 23.758 16.5499 
131 6 4 5.63721 22.171 18.2567 
132 6 4 5.23572 23.5564 19.2622 
133 6 4 7.71711 24.0948 19.4873 
134 6 4 8.10836 22.7476 18.4165 
135 6 4 7.06819 21.1163 20.0735 
136 6 4 6.66574 22.4758 21.1529 
137 6 4 8.36356 22.0751 20.8207 
138 6 4 5.31845 25.9431 18.2577 
139 6 4 6.02313 26.1818 16.6432 
140 6 4 7.07141 25.7901 18.0145 
141 7 1 2.57252 8.79691 0.0060104 
142 7 2 2.83106 10.2795 -0.315141 
143 7 3 3.95809 10.8201 0.591657 
144 7 3 4.51845 12.1795 0.143939 
145 7 1 5.65617 12.6443 1.05283 
146 7 1 1.51651 11.0483 -0.144671 
147 7 4 3.4714 8.17432 -0.169979 
148 7 4 1.76946 8.37723 -0.628489 
149 7 4 2.26997 8.6423 1.05795 
150 7 4 3.15184 10.3431 -1.37654 
151 7 4 4.79268 10.0914 0.607018 
152 7 4 3.60614 10.8778 1.64038 
153 7 4 3.72139 12.948 0.134782 
154 7 4 4.88165 12.1141 -0.900329 
155 7 4 6.50136 11.931 1.06397 
156 7 4 5.32606 12.7783 2.09858 
157 7 4 6.06123 13.6158 0.715551 
158 7 4 1.13922 11.0025 0.893099 
159 7 4 0.717593 10.6503 -0.799305 
160 7 4 1.62569 12.1188 -0.396687 
161 8 1 9.34932 10.3896 22.8669 
162 8 2 7.85969 10.5598 22.5186 
163 8 3 7.39719 9.3846 21.6312 
164 8 3 5.8698 9.28242 21.4751 
165 8 1 5.47606 8.06746 20.6349 
166 8 1 7.67094 11.9213 21.8382 
167 8 4 9.53975 9.44055 23.4007 
168 8 4 9.70797 11.1985 23.5299 
169 8 4 9.99409 10.3958 21.969 
170 8 4 7.28618 10.5467 23.4693 
171 8 4 7.76274 8.43521 22.0719 
172 8 4 7.87849 9.44575 20.636 
173 8 4 5.46062 10.1992 21.0091 
174 8 4 5.39084 9.21479 22.4711 
175 8 4 5.82226 7.11918 21.0835 
176 8 4 5.89055 8.11828 19.6116 
177 8 4 4.37942 7.98992 20.5327 
178 8 4 8.22517 11.9954 20.8845 
179 8 4 8.02117 12.7486 22.4827 
180 8 4 6.61079 12.1289 21.6107 
181 9 1 18.0079 8.81294 16.5055 
182 9 2 18.9938 8.62849 15.3377 
183 9 3 18.8187 9.78371 14.3291 
184 9 3 19.9278 9.8644 13.2667 
185 9 1 19.7277 11.067 12.3429 
186 9 1 18.7499 7.25079 14.7107 
187 9 4 18.1668 9.77157 17.0316 
188 9 4 18.1183 8.01931 17.2655 
189 9 4 16.9544 8.79405 16.1701 
190 9 4 20.023 8.65965 15.7535 
191 9 4 18.802 10.7434 14.8857 
192 9 4 17.8253 9.71496 13.8402 
193 9 4 19.9557 8.93877 12.6604 
194 9 4 20.9199 9.93175 13.7557 
195 9 4 19.7432 12.0242 12.8948 
196 9 4 18.7679 11.0174 11.7978 
197 9 4 20.5258 11.1224 11.5807 
198 9 4 17.7372 7.15924 14.2753 
199 9 4 18.862 6.43926 15.4536 
200 9 4 19.4698 7.02823 13.9041 
ITEM: TIMESTEP
3
ITEM: NUMBER OF ATOMS
200
ITEM: BOX BOUNDS pp pp pp
0.0000000000000000e+00 2.4278099999999998e+01
0.0000000000000000e+00 2.4278099999999998e+01
0.0000000000000000e+00 2.4278099999999998e+01
ITEM: ATOMS id mol type xu yu zu 
1 0 1 12.2887 19.2912 9.05075 
2 0 2 11.3026 18.8458 10.1413 
3 0 3 10.1335 19.8505 10.2387 
4 0 3 8.93739 19.3588 11.0711 
5 0 1 7.78271 20.3735 11.0526 
6 0 1 12.0548 18.6863 11.4799 
7 0 4 11.8015 19.3762 8.08425 
8 0 4 13.102 18.58 8.94346 
9 0 4 12.7279 20.261 9.28593 
10 0 4 10.8985 17.8658 9.85233 
11 0 4 9.77717 20.0754 9.23326 
12 0 4 10.4957 20.8015 10.6389 
13 0 4 9.23511 19.1723 12.1047 
14 0 4 8.58142 18.4003 10.6849 
15 0 4 7.43021 20.558 10.0375 
16 0 4 8.08728 21.3318 11.4737 
17 0 4 6.93632 20.0168 11.631 
18 0 4 12.4848 19.6335 11.8034 
19 0 4 12.8761 17.9783 11.382 
20 0 4 11.412 18.3274 12.2769 
21 1 1 26.5486 15.6098 1.34594 
22 1 2 26.5408 14.6456 2.54201 
23 1 3 25.199 13.8823 2.59643 
24 1 3 25.1768 12.6962 3.57592 
25 1 1 23.8353 11.9451 3.52687 
26 1 1 26.8282 15.4318 3.83994 
27 1 4 26.39 15.0823 0.410634 
28 1 4 27.4966 16.1331 1.26601 
29 1 4 25.7644 16.3614 1.43931 
30 1 4 27.3488 13.9167 2.39429 
31 1 4 24.9704 13.5028 1.60056 
32 1 4 24.3891 14.5764 2.8368 
33 1 4 25.3586 13.0355 4.5978 
34 1 4 25.9895 12.0036 3.34023 
35 1 4 23.6339 11.5499 2.53124 
36 1 4 23.0041 12.5982 3.79339 
37 1 4 23.828 11.1083 4.21883 
38 1 4 26.0408 16.158 4.04466 
39 1 4 27.7658 15.9803 3.76209 
40 1 4 26.9127 14.7818 4.70449 
41 2 1 4.28969 1.30761 12.5843 
42 2 2 5.35585 0.719254 11.6482 
43 2 3 4.77976 -0.496278 10.8889 
44 2 3 5.62121 -0.952727 9.68523 
45 2 1 4.96807 -2.14027 8.95842 
46 2 1 6.61397 0.357919 12.4669 
47 2 4 3.40695 1.61975 12.0357 
48 2 4 4.66662 2.17839 13.1126 
49 2 4 3.97383 0.577891 13.3294 
50 2 4 5.62909 1.49314 10.9176 
51 2 4 3.78125 -0.248085 10.5267 
52 2 4 4.63952 -1.32989 11.5822 
53 2 4 6.62892 -1.23087 9.99897 
54 2 4 5.74726 -0.124324 8.983 
55 2 4 3.97697 -1.88107 8.58466 
56 2 4 4.85421 -2.9972 9.62225 
57 2 4 5.56572 -2.45929 8.10998 
58 2 4 6.3891 -0.396018 13.2213 
59 2 4 7.00075 1.23172 12.9891 
60 2 4 7.41716 -0.0245639 11.8448 
61 3 1 7.15143 21.0506 14.7001 
62 3 2 8.28834 20.8709 15.7168 
63 3 3 9.57799 20.4208 14.9953 
64 3 3 10.8506 20.5107 15.8553 
65 3 1 12.1036 20.107 15.0597 
66 3 1 7.84639 19.8787 16.8151 
67 3 4 7.41939 21.7682 13.932 
68 3 4 6.24613 21.41 15.1799 
69 3 4 6.91181 20.1102 14.2031 
70 3 4 8.47507 21.8454 16.1871 
71 3 4 9.72302 21.0383 14.1077 
72 3 4 9.45496 19.4017 14.6191 
73 3 4 10.7651 19.874 16.7381 
74 3 4 10.9746 21.5289 16.2345 
75 3 4 12.2446 20.7423 14.1845 
76 3 4 12.0365 19.0773 14.7089 
77 3 4 12.9977 20.1857 15.67 
78 3 4 7.64931 18.8909 16.3975 
79 3 4 6.93031 20.2178 17.2951 
80 3 4 8.59106 19.7657 17.5966 
81 4 1 25.8564 10.0069 20.1071 
82 4 2 25.0425 8.80462 19.6037 
83 4 3 23.5493 9.18659 19.4925 
84 4 3 22.682 8.16368 18.7373 
85 4 1 21.2108 8.605 18.6676 
86 4 1 25.2724 7.60084 20.5431 
87 4 4 25.7438 10.8678 19.4548 
88 4 4 26.9162 9.77599 20.1613 
89 4 4 25.5371 10.3071 21.1049 
90 4 4 25.413 8.5394 18.6042 
91 4 4 23.4651 10.1444 18.979 
92 4 4 23.1378 9.35603 20.4914 
93 4 4 22.7365 7.18158 19.2115 
94 4 4 23.068 8.02635 17.7238 
95 4 4 21.1008 9.55915 18.1511 
96 4 4 20.784 8.72084 19.664 
97 4 4 20.6091 7.87391 18.1373 
98 4 4 24.9069 7.8104 21.548 
99 4 4 26.333 7.36971 20.6272 
100 4 4 24.7787 6.70073 20.1924 
101 5 1 16.5202 18.077 9.38597 
102 5 2 16.451 18.3456 10.8974 
103 5 3 15.9072 19.7694 11.153 
104 5 3 15.5642 20.0788 12.6207 
105 5 1 14.9722 21.4898 12.7733 
106 5 1 17.8469 18.1197 11.5199 
107 5 4 15.5472 18.1809 8.91763 
108 5 4 16.8754 17.0714 9.1793 
109 5 4 17.1986 18.7727 8.89119 
110 5 4 15.754 17.6216 11.341 
111 5 4 15.0056 19.9118 10.5567 
112 5 4 16.621 20.5091 10.7801 
113 5 4 16.4514 19.9929 13.251 
114 5 4 14.8513 19.3439 13.0044 
115 5 4 14.0544 21.6033 12.1957 
116 5 4 15.6724 22.2521 12.4314 
117 5 4 14.733 21.7067 13.81 
118 5 4 18.5767 18.8252 11.1219 
119 5 4 18.2131 17.1182 11.2964 
120 5 4 17.8398 18.2236 12.6003 
121 6 1 4.56379 23.8705 16.5348 
122 6 2 5.90783 24.0751 17.2495 
123 6 3 5.97111 23.1929 18.5159 
124 6 3 7.36435 23.0972 19.162 
125 6 1 7.3664 22.1401 20.3661 
126 6 1 6.0973 25.5754 17.5637 
127 6 4 4.41248 22.832 16.2575 
128 6 4 4.50966 24.4591 15.6247 
129 6 4 3.72881 24.1674 17.1696 
130 6 4 6.7067 23.7627 16.5635 
131 6 4 5.64455 22.185 18.2595 
132 6 4 5.24752 23.553 19.2523 
133 6 4 7.70943 24.0821 19.4838 
134 6 4 8.09521 22.7516 18.4266 
135 6 4 7.07264 21.1313 20.0749 
136 6 4 6.67495 22.4736 21.1402 
137 6 4 8.35297 22.0765 20.8143 
138 6 4 5.32927 25.9362 18.2487 
139 6 4 6.02501 26.1729 16.6557 
140 6 4 7.06368 25.7867 18.0099 
141 7 1 2.57424 8.78529 0.00291082 
142 7 2 2.82754 10.2682 -0.309142 
143 7 3 3.95808 10.8167 0.590273 
144 7 3 4.51672 12.1787 0.144776 
145 7 1 5.66286 12.6513 1.05451 
146 7 1 1.51132 11.0592 -0.146173 
147 7 4 3.46085 8.18346 -0.168698 
148 7 4 1.78152 8.38348 -0.620821 
149 7 4 2.27527 8.64651 1.04216 
150 7 4 3.14692 10.3428 -1.35701 
151 7 4 4.7817 10.1018 0.604754 
152 7 4 3.60996 10.8791 1.62531 
153 7 4 3.73077 12.936 0.137398 
154 7 4 4.87688 12.1124 -0.884578 
155 7 4 6.48864 11.9395 1.06179 
156 7 4 5.3282 12.7761 2.08451 
157 7 4 6.05627 13.6054 0.718596 
158 7 4 1.14612 11.0029 0.878938 
159 7 4 0.730378 10.6566 -0.789469 
160 7 4 1.62573 12.1087 -0.395887 
161 8 1 9.35715 10.3874 22.8744 
162 8 2 7.87226 10.5589 22.5167 
163 8 3 7.39845 9.38359 21.6338 
164 8 3 5.87176 9.28358 21.4749 
165 8 1 5.46915 8.06306 20.6311 
166 8 1 7.66344 11.9283 21.8349 
167 8 4 9.53606 9.45123 23.3946 
168 8 4 9.70201 11.1885 23.5219 
169 8 4 9.98286 10.395 21.9816 
170 8 4 7.2956 10.5462 23.4512 
171 8 4 7.75607 8.44878 22.0671 
172 8 4 7.87052 9.44621 20.6495 
173 8 4 5.46871 10.187 21.0139 
174 8 4 5.39972 9.2145 22.4579 
175 8 4 5.81874 7.13291 21.0802 
176 8 4 5.88592 8.11994 19.6255 
177 8 4 4.39064 7.99229 20.5344 
178 8 4 8.21714 11.9926 20.898 
179 8 4 8.01484 12.7368 22.4743 
180 8 4 6.61965 12.1262 21.6138 
181 9 1 18.0054 8.81565 16.5162 
182 9 2 18.982 8.62948 15.3445 
183 9 3 18.818 9.78519 14.3328 
184 9 3 19.9256 9.86323 13.2679 
185 9 1 19.731 11.0712 12.3361 
186 9 1 18.7546 7.24283 14.7032 
187 9 4 18.1664 9.76147 17.0245 
188 9 4 18.1187 8.02837 17.2557 
189 9 4 16.9707 8.79525 16.1735 
190 9 4 20.0046 8.65997 15.745 
191 9 4 18.8039 10.7297 14.8772 
192 9 4 17.8413 9.71468 13.8464 
193 9 4 19.9521 8.95098 12.6688 
194 9 4 20.9041 9.93209 13.7505 
195 9 4 19.7438 12.0106 12.8897 
196 9 4 18.7798 11.0156 11.806 
197 9 4 20.5179 11.121 11.5895 
198 9 4 17.7522 7.16201 14.2816 
199 9 4 18.8603 6.45115 15.4433 
200 9 4 19.4647 7.0318 13.9105 
