ITEM: TIMESTEP
0
ITEM: NUMBER OF ATOMS
200
ITEM: BOX BOUNDS pp pp pp
0.0000000000000000e+00 2.4278099999999998e+01
0.0000000000000000e+00 2.4278099999999998e+01
0.0000000000000000e+00 2.4278099999999998e+01
ITEM: ATOMS id mol type xu yu zu 
1 0 1 12.2887 19.2912 9.05075 
2 0 2 11.3026 18.8458 10.1413 
3 0 3 10.1335 19.8505 10.2387 
4 0 3 8.93739 19.3588 11.0711 
5 0 1 7.78271 20.3735 11.0526 
6 0 1 12.0548 18.6863 11.4799 
7 0 4 11.8015 19.3762 8.08425 
8 0 4 13.102 18.58 8.94346 
9 0 4 12.7279 20.261 9.28593 
10 0 4 10.8985 17.8658 9.85233 
11 0 4 9.77717 20.0754 9.23326 
12 0 4 10.4957 20.8015 10.6389 
13 0 4 9.23511 19.1723 12.1047 
14 0 4 8.58142 18.4003 10.6849 
15 0 4 7.43021 20.558 10.0375 
16 0 4 8.08728 21.3318 11.4737 
17 0 4 6.93632 20.0168 11.631 
18 0 4 12.4848 19.6335 11.8034 
19 0 4 12.8761 17.9783 11.382 
20 0 4 11.412 18.3274 12.2769 
21 1 1 26.5486 15.6098 1.34594 
22 1 2 26.5408 14.6456 2.54201 
23 1 3 25.199 13.8823 2.59643 
24 1 3 25.1768 12.6962 3.57592 
25 1 1 23.8353 11.9451 3.52687 
26 1 1 26.8282 15.4318 3.83994 
27 1 4 26.39 15.0823 0.410634 
28 1 4 27.4966 16.1331 1.26601 
29 1 4 25.7644 16.3614 1.43931 
30 1 4 27.3488 13.9167 2.39429 
31 1 4 24.9704 13.5028 1.60056 
32 1 4 24.3891 14.5764 2.8368 
33 1 4 25.3586 13.0355 4.5978 
34 1 4 25.9895 12.0036 3.34023 
35 1 4 23.6339 11.5499 2.53124 
36 1 4 23.0041 12.5982 3.79339 
37 1 4 23.828 11.1083 4.21883 
38 1 4 26.0408 16.158 4.04466 
39 1 4 27.7658 15.9803 3.76209 
40 1 4 26.9127 14.7818 4.70449 
41 2 1 4.28969 1.30761 12.5843 
42 2 2 5.35585 0.719254 11.6482 
43 2 3 4.77976 -0.496278 10.8889 
44 2 3 5.62121 -0.952727 9.68523 
45 2 1 4.96807 -2.14027 8.95842 
46 2 1 6.61397 0.357919 12.4669 
47 2 4 3.40695 1.61975 12.0357 
48 2 4 4.66662 2.17839 13.1126 
49 2 4 3.97383 0.577891 13.3294 
50 2 4 5.62909 1.49314 10.9176 
51 2 4 3.78125 -0.248085 10.5267 
52 2 4 4.63952 -1.32989 11.5822 
53 2 4 6.62892 -1.23087 9.99897 
54 2 4 5.74726 -0.124324 8.983 
55 2 4 3.97697 -1.88107 8.58466 
56 2 4 4.85421 -2.9972 9.62225 
57 2 4 5.56572 -2.45929 8.10998 
58 2 4 6.3891 -0.396018 13.2213 
59 2 4 7.00075 1.23172 12.9891 
60 2 4 7.41716 -0.0245639 11.8448 
61 3 1 7.15143 21.0506 14.7001 
62 3 2 8.28834 20.8709 15.7168 
63 3 3 9.57799 20.4208 14.9953 
64 3 3 10.8506 20.5107 15.8553 
65 3 1 12.1036 20.107 15.0597 
66 3 1 7.84639 19.8787 16.8151 
67 3 4 7.41939 21.7682 13.932 
68 3 4 6.24613 21.41 15.1799 
69 3 4 6.91181 20.1102 14.2031 
70 3 4 8.47507 21.8454 16.1871 
71 3 4 9.72302 21.0383 14.1077 
72 3 4 9.45496 19.4017 14.6191 
73 3 4 10.7651 19.874 16.7381 
74 3 4 10.9746 21.5289 16.2345 
75 3 4 12.2446 20.7423 14.1845 
76 3 4 12.0365 19.0773 14.7089 
77 3 4 12.9977 20.1857 15.67 
78 3 4 7.64931 18.8909 16.3975 
79 3 4 6.93031 20.2178 17.2951 
80 3 4 8.59106 19.7657 17.5966 
81 4 1 25.8564 10.0069 20.1071 
82 4 2 25.0425 8.80462 19.6037 
83 4 3 23.5493 9.18659 19.4925 
84 4 3 22.682 8.16368 18.7373 
85 4 1 21.2108 8.605 18.6676 
86 4 1 25.2724 7.60084 20.5431 
87 4 4 25.7438 10.8678 19.4548 
88 4 4 26.9162 9.77599 20.1613 
89 4 4 25.5371 10.3071 21.1049 
90 4 4 25.413 8.5394 18.6042 
91 4 4 23.4651 10.1444 18.979 
92 4 4 23.1378 9.35603 20.4914 
93 4 4 22.7365 7.18158 19.2115 
94 4 4 23.068 8.02635 17.7238 
95 4 4 21.1008 9.55915 18.1511 
96 4 4 20.784 8.72084 19.664 
97 4 4 20.6091 7.87391 18.1373 
98 4 4 24.9069 7.8104 21.548 
99 4 4 26.333 7.36971 20.6272 
100 4 4 24.7787 6.70073 20.1924 
101 5 1 16.5202 18.077 9.38597 
102 5 2 16.451 18.3456 10.8974 
103 5 3 15.9072 19.7694 11.153 
104 5 3 15.5642 20.0788 12.6207 
105 5 1 14.9722 21.4898 12.7733 
106 5 1 17.8469 18.1197 11.5199 
107 5 4 15.5472 18.1809 8.91763 
108 5 4 16.8754 17.0714 9.1793 
109 5 4 17.1986 18.7727 8.89119 
110 5 4 15.754 17.6216 11.341 
111 5 4 15.0056 19.9118 10.5567 
112 5 4 16.621 20.5091 10.7801 
113 5 4 16.4514 19.9929 13.251 
114 5 4 14.8513 19.3439 13.0044 
115 5 4 14.0544 21.6033 12.1957 
116 5 4 15.6724 22.2521 12.4314 
117 5 4 14.733 21.7067 13.81 
118 5 4 18.5767 18.8252 11.1219 
119 5 4 18.2131 17.1182 11.2964 
120 5 4 17.8398 18.2236 12.6003 
121 6 1 4.56379 23.8705 16.5348 
122 6 2 5.90783 24.0751 17.2495 
123 6 3 5.97111 23.1929 18.5159 
124 6 3 7.36435 23.0972 19.162 
125 6 1 7.3664 22.1401 20.3661 
126 6 1 6.0973 25.5754 17.5637 
127 6 4 4.41248 22.832 16.2575 
128 6 4 4.50966 24.4591 15.6247 
129 6 4 3.72881 24.1674 17.1696 
130 6 4 6.7067 23.7627 16.5635 
131 6 4 5.64455 22.185 18.2595 
132 6 4 5.24752 23.553 19.2523 
133 6 4 7.70943 24.0821 19.4838 
134 6 4 8.09521 22.7516 18.4266 
135 6 4 7.07264 21.1313 20.0749 
136 6 4 6.67495 22.4736 21.1402 
137 6 4 8.35297 22.0765 20.8143 
138 6 4 5.32927 25.9362 18.2487 
139 6 4 6.02501 26.1729 16.6557 
140 6 4 7.06368 25.7867 18.0099 
141 7 1 2.57424 8.78529 0.00291082 
142 7 2 2.82754 10.2682 -0.309142 
143 7 3 3.95808 10.8167 0.590273 
144 7 3 4.51672 12.1787 0.144776 
145 7 1 5.66286 12.6513 1.05451 
146 7 1 1.51132 11.0592 -0.146173 
147 7 4 3.46085 8.18346 -0.168698 
148 7 4 1.78152 8.38348 -0.620821 
149 7 4 2.27527 8.64651 1.04216 
150 7 4 3.14692 10.3428 -1.35701 
151 7 4 4.7817 10.1018 0.604754 
152 7 4 3.60996 10.8791 1.62531 
153 7 4 3.73077 12.936 0.137398 
154 7 4 4.87688 12.1124 -0.884578 
155 7 4 6.48864 11.9395 1.06179 
156 7 4 5.3282 12.7761 2.08451 
157 7 4 6.05627 13.6054 0.718596 
158 7 4 1.14612 11.0029 0.878938 
159 7 4 0.730378 10.6566 -0.789469 
160 7 4 1.62573 12.1087 -0.395887 
161 8 1 9.35715 10.3874 22.8744 
162 8 2 7.87226 10.5589 22.5167 
163 8 3 7.39845 9.38359 21.6338 
164 8 3 5.87176 9.28358 21.4749 
165 8 1 5.46915 8.06306 20.6311 
166 8 1 7.66344 11.9283 21.8349 
167 8 4 9.53606 9.45123 23.3946 
168 8 4 9.70201 11.1885 23.5219 
169 8 4 9.98286 10.395 21.9816 
170 8 4 7.2956 10.5462 23.4512 
171 8 4 7.75607 8.44878 22.0671 
172 8 4 7.87052 9.44621 20.6495 
173 8 4 5.46871 10.187 21.0139 
174 8 4 5.39972 9.2145 22.4579 
175 8 4 5.81874 7.13291 21.0802 
176 8 4 5.88592 8.11994 19.6255 
177 8 4 4.39064 7.99229 20.5344 
178 8 4 8.21714 11.9926 20.898 
179 8 4 8.01484 12.7368 22.4743 
180 8 4 6.61965 12.1262 21.6138 
181 9 1 18.0054 8.81565 16.5162 
182 9 2 18.982 8.62948 15.3445 
183 9 3 18.818 9.78519 14.3328 
184 9 3 19.9256 9.86323 13.2679 
185 9 1 19.731 11.0712 12.3361 
186 9 1 18.7546 7.24283 14.7032 
187 9 4 18.1664 9.76147 17.0245 
188 9 4 18.1187 8.02837 17.2557 
189 9 4 16.9707 8.79525 16.1735 
190 9 4 20.0046 8.65997 15.745 
191 9 4 18.8039 10.7297 14.8772 
192 9 4 17.8413 9.71468 13.8464 
193 9 4 19.9521 8.95098 12.6688 
194 9 4 20.9041 9.93209 13.7505 
195 9 4 19.7438 12.0106 12.8897 
196 9 4 18.7798 11.0156 11.806 
197 9 4 20.5179 11.121 11.5895 
198 9 4 17.7522 7.16201 14.2816 
199 9 4 18.8603 6.45115 15.4433 
200 9 4 19.4647 7.0318 13.9105 
ITEM: TIMESTEP
1000
ITEM: NUMBER OF ATOMS
200
ITEM: BOX BOUNDS pp pp pp
0.0000000000000000e+00 2.4278099999999998e+01
0.0000000000000000e+00 2.4278099999999998e+01
0.0000000000000000e+00 2.4278099999999998e+01
ITEM: ATOMS id mol type xu yu zu 
1 0 1 17.5907 9.90663 3.81755 
2 0 2 17.9999 11.4483 3.48168 
3 0 3 17.3204 12.0216 2.34287 
4 0 3 17.6528 11.252 1.00077 
5 0 1 16.5872 11.5518 -0.0537117 
6 0 1 19.4877 11.5501 3.21338 
7 0 4 16.5342 9.75836 3.5635 
8 0 4 17.6589 9.63872 4.81466 
9 0 4 18.2095 9.19632 3.2159 
10 0 4 17.5201 12.0507 4.25536 
11 0 4 17.7382 12.9986 2.03157 
12 0 4 16.2081 12.0556 2.33136 
13 0 4 17.7736 10.2285 1.21225 
14 0 4 18.661 11.6396 0.657323 
15 0 4 16.9852 12.4918 -0.371567 
16 0 4 15.6026 11.5463 0.329698 
17 0 4 16.5117 10.7542 -0.797191 
18 0 4 20.0767 10.7024 2.60521 
19 0 4 20.0092 11.6462 4.12201 
20 0 4 19.7265 12.4306 2.67699 
21 1 1 16.0831 11.2654 14.2033 
22 1 2 17.4586 11.6545 13.7111 
23 1 3 18.1298 10.6171 12.7748 
24 1 3 19.2693 11.1882 11.8402 
25 1 1 19.8016 10.3779 10.729 
26 1 1 18.303 12.2756 14.7645 
27 1 4 15.9388 10.2298 14.2338 
28 1 4 15.3306 11.6793 13.5799 
29 1 4 15.782 11.7413 15.1145 
30 1 4 17.2193 12.5667 13.0712 
31 1 4 17.325 10.0786 12.1593 
32 1 4 18.4809 9.93507 13.5727 
33 1 4 20.0083 11.2649 12.4867 
34 1 4 18.9056 12.1925 11.5517 
35 1 4 20.922 10.5312 10.8204 
36 1 4 19.458 10.8091 9.83792 
37 1 4 19.528 9.2835 10.6802 
38 1 4 19.2408 12.745 14.4661 
39 1 4 18.5779 11.659 15.6304 
40 1 4 17.789 13.0487 15.2998 
41 2 1 -0.0724559 -0.485082 6.44956 
42 2 2 -0.905989 0.316853 7.50045 
43 2 3 0.0635387 1.33124 8.116 
44 2 3 -0.826543 2.27738 8.98134 
45 2 1 0.0201272 3.09914 10.009 
46 2 1 -1.52654 -0.652334 8.46121 
47 2 4 0.550497 0.10208 5.78946 
48 2 4 -0.729851 -0.891645 5.66235 
49 2 4 0.596531 -1.2917 6.86258 
50 2 4 -1.81468 0.684335 7.02172 
51 2 4 0.505118 1.86055 7.28523 
52 2 4 0.768439 0.91868 8.76571 
53 2 4 -1.64711 1.72674 9.54593 
54 2 4 -1.3338 3.05843 8.37187 
55 2 4 1.01639 3.29758 9.59628 
56 2 4 0.290871 2.52292 10.9056 
57 2 4 -0.489306 4.07678 10.3557 
58 2 4 -2.59058 -0.904533 8.43339 
59 2 4 -1.14893 -0.277423 9.39889 
60 2 4 -1.16555 -1.61724 8.34213 
61 3 1 14.1367 17.4678 9.05931 
62 3 2 13.6302 18.0807 7.81867 
63 3 3 12.1961 18.6498 8.06329 
64 3 3 11.3261 18.8753 6.77651 
65 3 1 10.0946 19.7137 7.13096 
66 3 1 13.775 17.2114 6.55947 
67 3 4 13.835 17.7991 9.97456 
68 3 4 15.2223 17.2937 9.20442 
69 3 4 13.6146 16.4495 9.03697 
70 3 4 14.5689 18.7688 7.76619 
71 3 4 12.2377 19.5451 8.78887 
72 3 4 11.6384 17.8112 8.45011 
73 3 4 11.2185 17.9069 6.33681 
74 3 4 11.9255 19.47 6.04251 
75 3 4 9.62114 19.055 7.76215 
76 3 4 9.48926 19.7486 6.14659 
77 3 4 10.1942 20.6528 7.61918 
78 3 4 13.0496 16.4135 6.64371 
79 3 4 14.708 16.8465 6.39131 
80 3 4 13.5867 17.8274 5.68214 
81 4 1 26.1918 15.7433 17.7655 
82 4 2 26.7266 16.6751 16.6293 
83 4 3 27.4023 17.8758 17.3368 
84 4 3 28.1475 18.7812 16.426 
85 4 1 29.1827 19.6374 17.1005 
86 4 1 25.7857 17.4671 15.7229 
87 4 4 27.0256 15.4855 18.3382 
88 4 4 25.7755 14.7955 17.3651 
89 4 4 25.6118 16.2944 18.5137 
90 4 4 27.3689 16.1232 15.9285 
91 4 4 27.9585 17.5817 18.2246 
92 4 4 26.6956 18.6383 17.6538 
93 4 4 27.6167 19.6328 16.2765 
94 4 4 28.5559 18.2646 15.51 
95 4 4 29.7509 19.4836 18.0948 
96 4 4 28.6409 20.5249 17.5967 
97 4 4 29.8036 19.9557 16.2616 
98 4 4 25.2097 18.2657 16.2082 
99 4 4 25.0234 16.7389 15.386 
100 4 4 26.1408 17.9042 14.825 
101 5 1 20.3953 21.7725 12.5326 
102 5 2 21.7201 20.9841 12.5455 
103 5 3 21.3939 19.5252 11.9735 
104 5 3 21.3313 19.6816 10.41 
105 5 1 20.3955 18.7783 9.64998 
106 5 1 22.7962 20.9816 13.735 
107 5 4 19.6189 21.3632 13.2516 
108 5 4 19.9163 21.7043 11.5148 
109 5 4 20.5057 22.8703 12.5049 
110 5 4 22.3695 21.4709 11.9195 
111 5 4 20.2936 19.4068 12.2266 
112 5 4 22.133 18.7884 12.3438 
113 5 4 22.3885 19.7463 9.97105 
114 5 4 20.8513 20.5816 10.134 
115 5 4 20.4123 17.6853 10.0196 
116 5 4 20.7246 18.7191 8.6089 
117 5 4 19.4017 18.833 10.0018 
118 5 4 22.6613 20.2079 14.6121 
119 5 4 22.6149 22.026 14.0823 
120 5 4 23.771 20.7273 13.3267 
121 6 1 4.09456 26.8104 17.2034 
122 6 2 3.53079 27.4179 15.8678 
123 6 3 2.07607 27.9363 16.1609 
124 6 3 1.70225 28.8499 14.9331 
125 6 1 0.284718 29.4561 15.0774 
126 6 1 3.88308 26.5042 14.6054 
127 6 4 3.70676 27.5179 17.9596 
128 6 4 5.1557 26.7866 16.8941 
129 6 4 3.45209 25.905 17.2767 
130 6 4 4.18275 28.2507 15.8559 
131 6 4 2.04736 28.4555 17.1116 
132 6 4 1.37553 27.0671 16.2072 
133 6 4 1.79119 28.4003 13.8967 
134 6 4 2.44523 29.631 15.0295 
135 6 4 0.516278 30.5516 14.9191 
136 6 4 -0.261228 29.1055 15.953 
137 6 4 -0.253394 29.1339 14.3005 
138 6 4 3.33804 25.6109 14.3175 
139 6 4 4.81114 25.8954 14.5617 
140 6 4 3.85533 27.1582 13.7591 
141 7 1 4.42175 8.7839 7.13548 
142 7 2 3.973 7.36567 6.99717 
143 7 3 4.86424 6.36464 8.05153 
144 7 3 5.04766 5.0331 7.42837 
145 7 1 5.98755 3.97206 8.11693 
146 7 1 4.07666 6.94802 5.42105 
147 7 4 4.47288 9.12571 8.13906 
148 7 4 3.70879 9.48098 6.78558 
149 7 4 5.31278 9.02924 6.5588 
150 7 4 2.8701 7.34539 7.23627 
151 7 4 4.56312 6.53588 9.04502 
152 7 4 5.8853 6.85947 8.03993 
153 7 4 5.08055 5.0849 6.35089 
154 7 4 3.97978 4.81307 7.61033 
155 7 4 6.81653 4.6871 8.47305 
156 7 4 6.4856 3.34229 7.41362 
157 7 4 5.50429 3.40148 8.871 
158 7 4 5.08284 6.68772 5.10277 
159 7 4 3.75083 7.91503 4.86513 
160 7 4 3.53722 6.06144 5.1525 
161 8 1 4.1035 11.1151 23.4974 
162 8 2 5.5123 11.6537 23.527 
163 8 3 6.47535 10.5179 23.52 
164 8 3 7.89128 10.9868 23.8151 
165 8 1 9.09893 10.0769 23.4142 
166 8 1 5.58216 12.5752 24.7469 
167 8 4 4.14412 10.5579 22.5156 
168 8 4 3.48639 12.0691 23.3269 
169 8 4 3.70109 10.3502 24.2966 
170 8 4 5.5722 12.15 22.6256 
171 8 4 6.40777 10.103 22.5519 
172 8 4 6.06542 9.71994 24.2099 
173 8 4 7.966 10.921 24.9092 
174 8 4 8.01116 11.9415 23.3672 
175 8 4 9.06361 9.72583 22.2694 
176 8 4 8.92002 9.14567 24.0703 
177 8 4 10.1753 10.3507 23.6417 
178 8 4 5.68948 11.9495 25.5896 
179 8 4 4.66518 13.2259 24.9067 
180 8 4 6.36814 13.3132 24.569 
181 9 1 17.0099 8.84235 17.9541 
182 9 2 16.7384 9.05606 19.4478 
183 9 3 15.769 10.2673 19.5819 
184 9 3 16.505 11.6919 19.5148 
185 9 1 15.4056 12.7106 18.913 
186 9 1 17.8644 9.33808 20.3518 
187 9 4 16.3587 9.35151 17.2462 
188 9 4 16.9764 7.81696 17.6396 
189 9 4 17.9638 9.2709 17.857 
190 9 4 16.2711 8.16601 19.6653 
191 9 4 15.0444 10.181 20.3929 
192 9 4 15.1073 10.3273 18.722 
193 9 4 17.3882 11.6522 18.9563 
194 9 4 16.9744 11.9755 20.4471 
195 9 4 14.4095 12.3277 18.5754 
196 9 4 15.8001 12.9859 17.9464 
197 9 4 15.3068 13.5726 19.5329 
198 9 4 18.8973 8.89429 20.0963 
199 9 4 17.8023 9.00607 21.4397 
200 9 4 18.0759 10.3144 20.6599 
ITEM: TIMESTEP
2000
ITEM: NUMBER OF ATOMS
200
ITEM: BOX BOUNDS pp pp pp
0.0000000000000000e+00 2.4278099999999998e+01
0.0000000000000000e+00 2.4278099999999998e+01
0.0000000000000000e+00 2.4278099999999998e+01
ITEM: ATOMS id mol type xu yu zu 
1 0 1 28.2056 4.96635 4.17688 
2 0 2 26.9797 4.16326 3.73649 
3 0 3 26.8289 3.64955 2.30319 
4 0 3 26.9699 4.6487 1.29857 
5 0 1 25.9878 4.62474 0.105454 
6 0 1 25.7198 5.0529 4.00416 
7 0 4 28.1751 5.27273 5.24346 
8 0 4 28.2764 5.68984 3.39819 
9 0 4 29.0512 4.15687 4.22456 
10 0 4 26.941 3.2855 4.43293 
11 0 4 25.8846 3.06182 2.17622 
12 0 4 27.6397 2.84605 2.10462 
13 0 4 28.0195 4.62489 0.811364 
14 0 4 26.8127 5.67804 1.78449 
15 0 4 26.6305 4.40763 -0.829423 
16 0 4 25.5279 5.57599 0.071689 
17 0 4 25.342 3.65102 0.155071 
18 0 4 25.8588 6.09163 3.68941 
19 0 4 25.3445 5.04303 4.99889 
20 0 4 24.9521 4.69937 3.27737 
21 1 1 6.469 9.09275 13.655 
22 1 2 6.06489 9.76239 15.0179 
23 1 3 6.87838 9.44082 16.3426 
24 1 3 6.55772 7.98339 16.8884 
25 1 1 5.99089 7.85993 18.3182 
26 1 1 4.4577 9.88972 15.3614 
27 1 4 5.78898 8.287 13.5096 
28 1 4 7.42832 8.74841 13.5648 
29 1 4 6.22636 9.77062 12.7867 
30 1 4 6.32047 10.8078 14.938 
31 1 4 6.74071 10.0411 17.2368 
32 1 4 7.92256 9.38546 16.0761 
33 1 4 7.12916 7.13199 16.6551 
34 1 4 5.5762 7.62562 16.4298 
35 1 4 4.96632 7.38218 18.5397 
36 1 4 5.92414 8.94339 18.6267 
37 1 4 6.49284 7.19047 19.0741 
38 1 4 4.11109 10.6147 14.6367 
39 1 4 4.32354 10.2796 16.3928 
40 1 4 4.09636 8.85288 15.336 
41 2 1 -8.4325 3.85528 3.25977 
42 2 2 -9.229 2.51088 3.36131 
43 2 3 -8.18929 1.37256 2.80946 
44 2 3 -7.86636 0.381856 3.92012 
45 2 1 -6.78573 0.746064 4.94545 
46 2 1 -10.5135 2.6314 2.53405 
47 2 4 -8.95967 4.74755 3.42177 
48 2 4 -8.16681 4.05481 2.20305 
49 2 4 -7.43185 3.76629 3.61484 
50 2 4 -9.51542 2.45588 4.37537 
51 2 4 -7.40576 2.01722 2.34391 
52 2 4 -8.65291 0.895934 1.94661 
53 2 4 -7.725 -0.621387 3.53885 
54 2 4 -8.85561 0.223462 4.44264 
55 2 4 -7.08442 1.35055 5.74392 
56 2 4 -5.87788 1.25029 4.5924 
57 2 4 -6.63094 -0.1967 5.46398 
58 2 4 -10.9662 1.63703 2.69709 
59 2 4 -10.3771 2.7689 1.43298 
60 2 4 -11.1038 3.47273 2.89543 
61 3 1 17.1236 14.1392 -5.89852 
62 3 2 16.6742 14.5438 -4.44571 
63 3 3 17.2 13.6322 -3.42345 
64 3 3 17.416 14.335 -2.10861 
65 3 1 18.2525 13.6339 -1.09313 
66 3 1 15.1059 14.4661 -4.36597 
67 3 4 18.2066 14.2455 -5.99065 
68 3 4 16.7485 14.8313 -6.64751 
69 3 4 17.137 13.0321 -6.23894 
70 3 4 16.7347 15.6177 -4.26475 
71 3 4 18.1173 13.1505 -3.6292 
72 3 4 16.5669 12.7651 -3.39655 
73 3 4 16.4518 14.3807 -1.52763 
74 3 4 17.8258 15.2985 -2.37251 
75 3 4 19.3514 14.052 -0.994433 
76 3 4 18.1999 12.5281 -1.3584 
77 3 4 17.7625 13.8692 -0.171432 
78 3 4 14.3921 13.646 -4.59659 
79 3 4 14.7161 15.1899 -5.17904 
80 3 4 14.8862 14.8986 -3.38587 
81 4 1 36.2253 24.1877 18.5177 
82 4 2 35.3973 25.3319 18.9753 
83 4 3 34.3289 24.7752 19.8758 
84 4 3 32.9669 25.3305 20.0561 
85 4 1 32.7602 25.6948 21.6016 
86 4 1 34.9278 26.2894 17.8579 
87 4 4 36.5846 24.3877 17.5515 
88 4 4 35.7435 23.1925 18.2895 
89 4 4 37.0624 24.1609 19.2145 
90 4 4 36.0587 25.9755 19.5973 
91 4 4 34.7493 24.4731 20.847 
92 4 4 34.0971 23.6884 19.5894 
93 4 4 32.3984 24.6639 19.4708 
94 4 4 32.7481 26.2437 19.5477 
95 4 4 32.8307 24.7425 22.2369 
96 4 4 31.758 25.995 21.9532 
97 4 4 33.5353 26.419 21.9892 
98 4 4 33.869 26.2549 17.4462 
99 4 4 35.7373 26.5899 17.121 
100 4 4 34.9393 27.1129 18.427 
101 5 1 25.3381 24.0307 12.2822 
102 5 2 26.2634 22.8701 11.6331 
103 5 3 26.903 23.2822 10.4184 
104 5 3 27.3947 24.5948 10.3162 
105 5 1 28.2663 24.7551 9.12361 
106 5 1 25.4193 21.6087 11.2079 
107 5 4 25.8349 24.7176 13.0718 
108 5 4 24.5546 23.5665 12.8127 
109 5 4 25.073 24.6614 11.4166 
110 5 4 27.0157 22.4263 12.373 
111 5 4 26.1905 23.0986 9.53385 
112 5 4 27.8621 22.7144 10.2739 
113 5 4 27.6436 24.747 11.2499 
114 5 4 26.4496 25.1755 10.0283 
115 5 4 29.3632 24.3409 9.20318 
116 5 4 28.3014 25.7075 8.72285 
117 5 4 27.7456 24.3507 8.29233 
118 5 4 24.3941 21.8912 10.9504 
119 5 4 25.3501 21.0411 12.1998 
120 5 4 25.721 21.1043 10.317 
121 6 1 -3.59516 35.5977 13.0444 
122 6 2 -2.62234 34.65 13.7662 
123 6 3 -2.86916 33.1943 13.1939 
124 6 3 -2.05138 32.0835 13.9632 
125 6 1 -1.95235 30.728 13.14 
126 6 1 -2.74429 34.5648 15.3444 
127 6 4 -3.7514 35.0339 12.0654 
128 6 4 -3.10609 36.5886 12.7371 
129 6 4 -4.51806 35.9323 13.5276 
130 6 4 -1.66184 35.0159 13.3649 
131 6 4 -2.64501 33.1541 12.0795 
132 6 4 -3.96861 32.9202 13.338 
133 6 4 -2.84217 31.9301 14.746 
134 6 4 -1.05648 32.5721 14.3339 
135 6 4 -1.79349 30.9319 12.1034 
136 6 4 -2.85591 30.0318 13.3464 
137 6 4 -1.13016 30.3091 13.507 
138 6 4 -3.61612 33.9757 15.8335 
139 6 4 -2.74673 35.7444 15.5663 
140 6 4 -1.85127 34.1248 15.6782 
141 7 1 8.04129 3.41651 11.3589 
142 7 2 6.52482 3.6833 11.1477 
143 7 3 5.90086 5.01038 11.6772 
144 7 3 4.55429 5.2002 11.0048 
145 7 1 3.33 4.4977 11.8434 
146 7 1 5.9201 2.41612 11.9333 
147 7 4 8.42204 3.64223 10.3251 
148 7 4 8.33554 2.35964 11.5185 
149 7 4 8.51798 3.95481 12.2158 
150 7 4 6.37183 3.41898 10.0962 
151 7 4 6.6175 5.7328 11.4065 
152 7 4 5.78087 5.19144 12.7721 
153 7 4 4.5226 5.2148 9.93055 
154 7 4 4.30535 6.26585 11.0369 
155 7 4 2.96839 3.54073 11.3974 
156 7 4 2.55646 5.33777 12.0807 
157 7 4 3.73163 4.40611 12.854 
158 7 4 5.26121 2.83649 12.5452 
159 7 4 6.39135 1.69072 12.6267 
160 7 4 5.32443 1.66341 11.4224 
161 8 1 5.62812 11.6825 28.6308 
162 8 2 5.64706 12.3321 27.2944 
163 8 3 4.34329 12.0783 26.6055 
164 8 3 4.02301 12.9253 25.2611 
165 8 1 2.56084 13.2861 25.0659 
166 8 1 6.79096 11.9503 26.3205 
167 8 4 4.58451 11.7396 29.0493 
168 8 4 6.39644 12.1543 29.2409 
169 8 4 5.80758 10.5279 28.6017 
170 8 4 5.81399 13.4725 27.31 
171 8 4 3.41518 11.8884 27.21 
172 8 4 4.35285 10.9791 26.3272 
173 8 4 4.38946 12.5924 24.3212 
174 8 4 4.46442 13.8904 25.4156 
175 8 4 1.81045 12.48 25.0474 
176 8 4 2.47989 13.6179 24.0843 
177 8 4 2.23741 14.1275 25.5348 
178 8 4 7.21909 12.7239 25.7356 
179 8 4 6.63311 11.1091 25.5237 
180 8 4 7.62506 11.4749 26.9433 
181 9 1 14.7711 6.80618 26.3433 
182 9 2 15.8339 7.66306 25.8255 
183 9 3 16.1616 7.2885 24.2439 
184 9 3 17.6173 7.6181 24.155 
185 9 1 18.5477 6.95537 23.1127 
186 9 1 16.9011 7.60875 26.8438 
187 9 4 14.4741 5.86264 25.8049 
188 9 4 13.996 7.54734 26.1464 
189 9 4 14.5822 6.71771 27.433 
190 9 4 15.4438 8.83267 25.7878 
191 9 4 15.6972 8.07046 23.6424 
192 9 4 15.863 6.35895 23.7485 
193 9 4 18.3095 7.5798 25.0221 
194 9 4 17.574 8.62352 23.6662 
195 9 4 18.8474 7.42177 22.2092 
196 9 4 17.8078 6.20561 22.7802 
197 9 4 19.4511 6.48584 23.6201 
198 9 4 17.186 6.5126 26.5607 
199 9 4 16.7675 7.55405 27.8793 
200 9 4 17.5904 8.42473 26.6722 
ITEM: TIMESTEP
3000
ITEM: NUMBER OF ATOMS
200
ITEM: BOX BOUNDS pp pp pp
0.0000000000000000e+00 2.4278099999999998e+01
0.0000000000000000e+00 2.4278099999999998e+01
0.0000000000000000e+00 2.4278099999999998e+01
ITEM: ATOMS id mol type xu yu zu 
1 0 1 30.6453 -0.687198 2.67126 
2 0 2 31.8776 -0.182837 3.47702 
3 0 3 33.1805 -0.320042 2.70977 
4 0 3 33.8842 -1.75122 2.72287 
5 0 1 32.9574 -2.96349 2.47531 
6 0 1 32.0122 -0.343308 5.06104 
7 0 4 29.746 -0.757255 3.25133 
8 0 4 30.6879 -1.71234 2.23448 
9 0 4 30.4601 0.214913 1.85274 
10 0 4 31.8329 0.934053 3.39528 
11 0 4 33.7951 0.505124 2.50384 
12 0 4 32.7658 -0.58119 1.68396 
13 0 4 34.3178 -1.92693 3.71868 
14 0 4 34.6698 -1.62526 1.94095 
15 0 4 32.0421 -3.12004 3.11986 
16 0 4 33.4852 -3.92822 2.72825 
17 0 4 32.4564 -2.89213 1.55078 
18 0 4 31.3231 0.390969 5.59685 
19 0 4 33.1095 -0.105665 5.41415 
20 0 4 31.6444 -1.28448 5.5343 
21 1 1 -3.49366 7.62065 19.7841 
22 1 2 -3.68251 7.29863 18.3049 
23 1 3 -2.23386 7.56657 17.6527 
24 1 3 -1.47965 6.26242 17.5088 
25 1 1 0.0782491 6.44965 17.7338 
26 1 1 -4.99132 7.92034 17.8068 
27 1 4 -3.66039 8.68866 20.0171 
28 1 4 -2.68251 7.23902 20.3433 
29 1 4 -4.21009 6.88339 20.2797 
30 1 4 -3.99757 6.28884 18.4139 
31 1 4 -1.84388 8.40451 18.1953 
32 1 4 -2.4224 7.9916 16.6991 
33 1 4 -1.60976 5.96896 16.4352 
34 1 4 -1.99639 5.47115 17.9952 
35 1 4 0.45231 6.90455 16.7766 
36 1 4 0.410957 5.42129 17.6793 
37 1 4 0.420581 6.87703 18.6764 
38 1 4 -5.19916 8.9795 18.1464 
39 1 4 -5.80846 7.36951 18.3365 
40 1 4 -5.28989 7.96421 16.7227 
41 2 1 -7.25128 -3.70786 12.401 
42 2 2 -8.17881 -3.54785 11.2442 
43 2 3 -8.48475 -1.97637 11.1453 
44 2 3 -8.95727 -1.50244 9.72198 
45 2 1 -8.52037 -0.186429 9.18971 
46 2 1 -9.44611 -4.46189 11.0207 
47 2 4 -6.9884 -4.78307 12.2571 
48 2 4 -7.47408 -3.30526 13.3941 
49 2 4 -6.42459 -3.00741 12.3885 
50 2 4 -7.39453 -3.78713 10.3975 
51 2 4 -7.50316 -1.60351 11.303 
52 2 4 -9.00592 -1.58187 11.9509 
53 2 4 -10.0133 -1.59698 9.71844 
54 2 4 -8.80876 -2.14907 8.93636 
55 2 4 -8.29191 -0.315506 8.07294 
56 2 4 -7.69995 0.247031 9.77943 
57 2 4 -9.39043 0.337601 9.38817 
58 2 4 -9.88933 -4.50353 10.0311 
59 2 4 -10.3345 -4.30433 11.7536 
60 2 4 -9.14703 -5.47605 11.3111 
61 3 1 13.4617 15.6748 -10.956 
62 3 2 14.5184 16.6519 -10.2873 
63 3 3 15.9559 16.5597 -10.709 
64 3 3 16.7122 15.1792 -10.396 
65 3 1 18.0759 14.8523 -11.1479 
66 3 1 14.4735 16.5877 -8.70519 
67 3 4 13.7946 14.6595 -10.9302 
68 3 4 13.2364 15.9534 -11.9916 
69 3 4 12.4257 15.6807 -10.5162 
70 3 4 14.058 17.5326 -10.5115 
71 3 4 16.5713 17.2811 -10.066 
72 3 4 15.9986 16.6972 -11.8483 
73 3 4 16.1236 14.2925 -10.482 
74 3 4 16.9801 15.2985 -9.33985 
75 3 4 18.6279 15.665 -11.5023 
76 3 4 17.9313 14.1973 -12.0577 
77 3 4 18.8292 14.4043 -10.5038 
78 3 4 14.0487 15.62 -8.51686 
79 3 4 13.6654 17.3638 -8.48959 
80 3 4 15.4087 16.6581 -8.07375 
81 4 1 40.1143 26.5592 22.1058 
82 4 2 39.8585 25.1491 22.2584 
83 4 3 39.0328 24.7413 23.429 
84 4 3 38.6729 23.1478 23.6283 
85 4 1 39.0956 22.3349 24.8054 
86 4 1 41.095 24.1691 22.0708 
87 4 4 41.195 26.975 22.1312 
88 4 4 39.6028 27.131 22.7968 
89 4 4 39.6025 26.8831 21.2848 
90 4 4 39.5026 24.6929 21.3183 
91 4 4 38.0596 24.9083 23.747 
92 4 4 39.5281 24.9403 24.2935 
93 4 4 39.1377 22.5321 22.8328 
94 4 4 37.6479 22.8143 23.4531 
95 4 4 38.8585 22.66 25.8089 
96 4 4 40.2058 22.0858 24.8982 
97 4 4 38.5131 21.3995 24.6905 
98 4 4 41.9251 24.8486 21.939 
99 4 4 40.9636 23.4136 21.2563 
100 4 4 41.2988 23.6427 23.1315 
101 5 1 26.3111 25.682 5.89549 
102 5 2 27.3368 25.8054 6.99307 
103 5 3 27.5782 24.2658 7.28982 
104 5 3 28.5933 23.9087 8.30733 
105 5 1 30.1117 24.2987 8.13107 
106 5 1 26.7995 26.7685 8.08902 
107 5 4 26.3465 26.4589 5.21815 
108 5 4 25.3013 25.6896 6.20594 
109 5 4 26.4595 24.953 5.16944 
110 5 4 28.2142 26.4169 6.68875 
111 5 4 27.8871 23.9621 6.28047 
112 5 4 26.6632 23.7754 7.5304 
113 5 4 28.6063 22.9003 8.59372 
114 5 4 28.362 24.295 9.3135 
115 5 4 30.2456 25.1114 7.28268 
116 5 4 30.7458 23.5079 8.03087 
117 5 4 30.3348 24.9368 9.08218 
118 5 4 25.7487 26.5916 8.39019 
119 5 4 26.9563 27.8041 8.22255 
120 5 4 27.3649 26.3572 9.03666 
121 6 1 -6.36653 35.2762 7.4054 
122 6 2 -4.76658 35.587 6.99895 
123 6 3 -3.88365 35.8301 8.29022 
124 6 3 -3.23717 34.4341 8.79794 
125 6 1 -2.23338 34.6912 9.91701 
126 6 1 -4.51459 36.7151 6.01877 
127 6 4 -6.30148 34.233 7.86906 
128 6 4 -7.00629 35.3044 6.48128 
129 6 4 -6.92796 36.0432 7.97719 
130 6 4 -4.3582 34.6278 6.60722 
131 6 4 -4.21892 36.6034 8.97953 
132 6 4 -2.92712 36.3666 7.96899 
133 6 4 -2.76674 34.056 7.9787 
134 6 4 -3.87952 33.6369 9.2136 
135 6 4 -2.21119 35.7644 9.76866 
136 6 4 -1.22413 34.2245 9.80122 
137 6 4 -2.83663 34.5629 10.7812 
138 6 4 -5.37357 37.3409 5.75911 
139 6 4 -4.58058 36.1566 5.12559 
140 6 4 -3.5509 37.1943 5.95015 
141 7 1 9.94625 5.43806 9.35641 
142 7 2 9.34338 6.83784 9.82152 
143 7 3 7.86105 6.51441 9.71787 
144 7 3 7.24497 6.37612 11.1415 
145 7 1 7.25606 4.88728 11.7929 
146 7 1 9.67616 8.0709 8.9097 
147 7 4 9.43797 4.51113 9.67145 
148 7 4 11.0159 5.38478 9.81398 
149 7 4 10.2448 5.49406 8.30036 
150 7 4 9.8136 7.12325 10.854 
151 7 4 7.65244 5.63353 9.0618 
152 7 4 7.22193 7.25077 9.41731 
153 7 4 6.31041 6.58769 10.7348 
154 7 4 7.33756 7.1608 11.8366 
155 7 4 6.66093 4.84395 12.7701 
156 7 4 8.31149 4.53861 11.953 
157 7 4 6.95273 4.16633 10.9227 
158 7 4 9.34531 8.01597 7.84262 
159 7 4 10.7225 8.00989 8.71624 
160 7 4 9.20506 9.00266 9.2289 
161 8 1 0.991711 14.5232 28.7779 
162 8 2 2.44067 14.0156 29.1903 
163 8 3 2.66409 12.4951 28.9502 
164 8 3 4.05135 11.8837 29.6206 
165 8 1 4.13955 10.2794 29.5017 
166 8 1 2.54862 14.375 30.6895 
167 8 4 0.739641 15.3807 29.258 
168 8 4 0.385778 13.8885 29.3272 
169 8 4 0.762832 14.407 27.6752 
170 8 4 3.13851 14.6182 28.5148 
171 8 4 3.06096 12.4196 27.9991 
172 8 4 1.68334 11.8292 28.8676 
173 8 4 4.01202 11.992 30.7098 
174 8 4 4.97722 12.3179 29.1337 
175 8 4 4.52908 9.92023 28.54 
176 8 4 3.25554 9.98685 29.8713 
177 8 4 4.7399 9.9557 30.1992 
178 8 4 3.38608 13.8959 31.18 
179 8 4 1.56433 14.1815 31.2747 
180 8 4 2.69465 15.4508 30.8675 
181 9 1 15.6353 12.1577 23.9044 
182 9 2 15.4894 11.3577 25.2325 
183 9 3 16.0933 12.2722 26.432 
184 9 3 14.9964 13.2972 27.005 
185 9 1 13.8809 12.609 27.7776 
186 9 1 16.0976 9.98611 24.8569 
187 9 4 14.7898 12.8517 23.5625 
188 9 4 15.4273 11.345 23.1543 
189 9 4 16.5773 12.5884 23.5814 
190 9 4 14.5025 11.0855 25.2133 
191 9 4 17.1146 12.7357 26.1937 
192 9 4 16.453 11.8654 27.4379 
193 9 4 14.9228 14.2243 26.2892 
194 9 4 15.4807 13.8542 27.8669 
195 9 4 13.1178 13.2534 28.3094 
196 9 4 14.1776 11.797 28.4723 
197 9 4 13.2904 12.1263 26.8384 
198 9 4 17.1441 9.95734 24.3757 
199 9 4 15.4216 9.54195 24.2331 
200 9 4 15.9115 9.05997 25.5199 
ITEM: TIMESTEP
4000
ITEM: NUMBER OF ATOMS
200
ITEM: BOX BOUNDS pp pp pp
0.0000000000000000e+00 2.4278099999999998e+01
0.0000000000000000e+00 2.4278099999999998e+01
0.0000000000000000e+00 2.4278099999999998e+01
ITEM: ATOMS id mol type xu yu zu 
1 0 1 34.0815 -5.43684 2.97012 
2 0 2 34.2571 -5.88147 1.49253 
3 0 3 34.1057 -4.68576 0.440843 
4 0 3 33.2639 -3.56266 0.676573 
5 0 1 32.7784 -2.72772 -0.54111 
6 0 1 33.2931 -7.11812 1.21268 
7 0 4 33.0362 -5.2805 3.16044 
8 0 4 34.7759 -4.76661 3.23654 
9 0 4 34.0995 -6.3294 3.58286 
10 0 4 35.258 -6.29859 1.2817 
11 0 4 34.2062 -4.93106 -0.57606 
12 0 4 35.093 -4.1294 0.520343 
13 0 4 33.9838 -2.95476 1.33738 
14 0 4 32.464 -3.89977 1.31772 
15 0 4 33.5091 -1.8615 -0.606604 
16 0 4 31.7765 -2.23194 -0.439714 
17 0 4 32.7093 -3.26038 -1.44477 
18 0 4 33.1589 -7.85313 1.93641 
19 0 4 33.4562 -7.70959 0.286468 
20 0 4 32.2093 -6.79324 0.987178 
21 1 1 -7.11992 3.19454 20.6526 
22 1 2 -8.57151 3.53199 20.1782 
23 1 3 -9.21766 2.24791 19.3305 
24 1 3 -10.3927 2.37851 18.3984 
25 1 1 -10.9804 1.05822 17.9785 
26 1 1 -8.59759 4.63096 19.2679 
27 1 4 -6.39061 2.86573 19.9913 
28 1 4 -7.27812 2.29564 21.2926 
29 1 4 -6.43841 4.0398 20.9229 
30 1 4 -9.16815 3.68215 21.0965 
31 1 4 -9.69815 1.66978 20.0832 
32 1 4 -8.49733 1.4967 18.9201 
33 1 4 -10.2403 3.02414 17.468 
34 1 4 -11.3048 2.87426 18.7435 
35 1 4 -10.2112 0.203552 18.195 
36 1 4 -11.2831 1.09139 16.9284 
37 1 4 -11.8735 0.964476 18.505 
38 1 4 -9.31803 4.76054 18.4942 
39 1 4 -7.64451 4.73931 18.7769 
40 1 4 -8.79273 5.60702 19.6355 
41 2 1 2.06799 3.53651 19.7825 
42 2 2 1.90015 2.47865 18.7707 
43 2 3 0.715299 1.63798 19.212 
44 2 3 0.349197 0.388652 18.4948 
45 2 1 -1.02518 -0.199243 19.04 
46 2 1 3.02561 1.55657 18.9994 
47 2 4 3.10625 3.82016 19.8995 
48 2 4 1.24354 3.67435 20.4426 
49 2 4 1.82132 4.50486 19.2929 
50 2 4 1.75225 2.8284 17.7216 
51 2 4 -0.226912 2.18328 19.301 
52 2 4 0.930463 1.39858 20.3548 
53 2 4 0.942559 -0.506043 18.2873 
54 2 4 0.250272 0.781539 17.5009 
55 2 4 -1.90745 0.570713 18.9759 
56 2 4 -0.894835 -0.130363 20.1268 
57 2 4 -1.52413 -1.05733 18.5882 
58 2 4 3.20996 1.02989 19.9861 
59 2 4 4.03814 2.10474 18.7069 
60 2 4 3.19309 0.735774 18.1987 
61 3 1 8.74985 11.3628 -11.2311 
62 3 2 7.78627 11.6733 -12.2723 
63 3 3 8.32274 12.7447 -13.2605 
64 3 3 8.79248 12.3568 -14.6954 
65 3 1 9.65852 13.4909 -15.2548 
66 3 1 6.30061 11.9776 -11.6771 
67 3 4 9.47727 12.1624 -11.3003 
68 3 4 9.24182 10.3987 -11.418 
69 3 4 8.22559 11.4881 -10.2852 
70 3 4 7.61557 10.817 -12.8822 
71 3 4 9.08195 13.4616 -12.7863 
72 3 4 7.47046 13.4248 -13.4998 
73 3 4 7.82339 12.204 -15.3429 
74 3 4 9.33343 11.3891 -14.7162 
75 3 4 10.6752 13.1767 -15.417 
76 3 4 9.56425 14.4445 -14.7165 
77 3 4 9.38665 13.6816 -16.2328 
78 3 4 5.41617 11.7837 -12.3206 
79 3 4 6.24995 13.0768 -11.3579 
80 3 4 5.83915 11.3362 -10.7634 
81 4 1 42.512 23.317 22.7696 
82 4 2 42.0809 22.886 24.1637 
83 4 3 42.5002 21.3319 24.3856 
84 4 3 43.9388 20.9821 24.0714 
85 4 1 45.0576 21.326 25.0774 