ITEM: TIMESTEP
1250000
ITEM: NUMBER OF ATOMS
200
ITEM: BOX BOUNDS pp pp pp
-1.5764690282417957e+01 4.0042790286413471e+01
-1.5764690282417957e+01 4.0042790286413471e+01
-1.5764690282417957e+01 4.0042790286413471e+01
ITEM: ATOMS id mol type xu yu zu 
1 0 1 1197.25 -27.9341 263.862 
2 0 2 1198.72 -27.2771 263.936 
3 0 3 1198.56 -25.7269 263.726 
4 0 3 1199.95 -24.9756 263.758 
5 0 1 1200.85 -25.3391 265.07 
6 0 1 1199.53 -27.9582 262.822 
7 0 4 1196.96 -27.874 262.851 
8 0 4 1196.46 -27.52 264.536 
9 0 4 1197.41 -29.03 264.053 
10 0 4 1199.09 -27.6769 264.87 
11 0 4 1198.06 -25.3764 264.609 
12 0 4 1198.02 -25.492 262.778 
13 0 4 1199.95 -23.9017 263.601 
14 0 4 1200.51 -25.3172 262.856 
15 0 4 1200.35 -25.1301 265.916 
16 0 4 1201.74 -24.7801 265.185 
17 0 4 1201.12 -26.3888 265.058 
18 0 4 1199.39 -29.0136 262.866 
19 0 4 1200.59 -27.701 262.913 
20 0 4 1199.3 -27.6456 261.764 
21 1 1 470.628 491.716 -306.119 
22 1 2 471.964 492.576 -306.21 
23 1 3 471.713 493.999 -306.874 
24 1 3 471.137 493.968 -308.245 
25 1 1 471.142 495.339 -308.903 
26 1 1 473.159 491.838 -306.855 
27 1 4 469.727 492.353 -306.008 
28 1 4 470.618 491.067 -305.248 
29 1 4 470.44 491.016 -306.892 
30 1 4 472.233 492.98 -305.28 
31 1 4 472.717 494.421 -306.983 
32 1 4 471.108 494.752 -306.363 
33 1 4 470.14 493.542 -308.18 
34 1 4 471.572 493.312 -308.92 
35 1 4 470.562 495.282 -309.816 
36 1 4 472.153 495.618 -309.052 
37 1 4 470.524 496.046 -308.338 
38 1 4 473.981 492.484 -307.022 
39 1 4 472.943 491.514 -307.837 
40 1 4 473.465 490.979 -306.28 
41 2 1 189.548 246.67 97.0971 
42 2 2 190.118 246.561 98.5627 
43 2 3 189.986 245.058 99.0092 
44 2 3 190.601 244.63 100.389 
45 2 1 192.104 244.888 100.401 
46 2 1 189.393 247.547 99.4555 
47 2 4 188.489 246.401 97.1203 
48 2 4 190.234 246.113 96.4133 
49 2 4 189.554 247.672 96.7347 
50 2 4 191.281 246.789 98.4271 
51 2 4 190.57 244.463 98.3202 
52 2 4 188.978 244.616 99.0703 
53 2 4 190.339 243.564 100.467 
54 2 4 190.131 245.134 101.25 
55 2 4 192.237 245.964 100.616 
56 2 4 192.578 244.676 99.4372 
57 2 4 192.575 244.466 101.286 
58 2 4 188.363 247.243 99.5041 
59 2 4 189.618 248.542 99.2179 
60 2 4 189.696 247.445 100.47 
61 3 1 -139.627 -24.496 204.095 
62 3 2 -139.733 -22.9803 204.046 
63 3 3 -141.035 -22.4988 203.379 
64 3 3 -142.251 -23.3024 203.869 
65 3 1 -143.518 -22.3966 203.838 
66 3 1 -138.543 -22.2081 203.443 
67 3 4 -139.506 -25.0099 203.214 
68 3 4 -140.533 -24.8788 204.631 
69 3 4 -138.835 -24.9007 204.792 
70 3 4 -139.831 -22.6658 205.121 
71 3 4 -141.029 -22.6839 202.286 
72 3 4 -141.104 -21.317 203.45 
73 3 4 -142.132 -23.8035 204.894 
74 3 4 -142.38 -24.1417 203.152 
75 3 4 -143.767 -22.0749 202.835 
76 3 4 -143.44 -21.5235 204.529 
77 3 4 -144.325 -23.0301 204.241 
78 3 4 -137.543 -22.338 203.915 
79 3 4 -138.816 -21.1555 203.613 
80 3 4 -138.471 -22.3558 202.446 
81 4 1 -2069.59 -240.326 -605.385 
82 4 2 -2068.3 -239.928 -606.13 
83 4 3 -2068.54 -239.191 -607.401 
84 4 3 -2067.34 -238.513 -607.959 
85 4 1 -2067.72 -237.602 -609.123 
86 4 1 -2067.3 -241.143 -606.366 
87 4 4 -2069.94 -241.178 -605.938 
88 4 4 -2070.37 -239.499 -605.515 
89 4 4 -2069.48 -240.652 -604.359 
90 4 4 -2067.76 -239.206 -605.428 
91 4 4 -2069.37 -238.385 -607.24 
92 4 4 -2069.11 -239.816 -608.009 
93 4 4 -2066.68 -239.214 -608.378 
94 4 4 -2066.8 -238.113 -607.18 
95 4 4 -2068.29 -236.659 -608.9 
96 4 4 -2068.29 -238.192 -609.836 
97 4 4 -2066.84 -237.131 -609.691 
98 4 4 -2066.93 -241.554 -605.46 
99 4 4 -2066.41 -240.921 -606.9 
100 4 4 -2067.72 -241.961 -606.872 
101 5 1 354.518 261.014 525.062 
102 5 2 355.12 260.14 526.13 
103 5 3 354.518 258.79 526.325 
104 5 3 354.424 257.955 525.053 
105 5 1 354.267 256.503 525.485 
106 5 1 355.283 260.855 527.443 
107 5 4 354.993 261.99 524.895 
108 5 4 353.434 261.054 525.127 
109 5 4 354.777 260.499 524.104 
110 5 4 356.155 260.022 525.798 
111 5 4 353.523 259.031 526.75 
112 5 4 355.051 258.384 527.108 
113 5 4 355.392 258.128 524.506 
114 5 4 353.723 258.307 524.322 
115 5 4 353.306 256.498 525.93 
116 5 4 354.992 256.079 526.158 
117 5 4 354.213 255.823 524.625 
118 5 4 355.416 260.176 528.35 
119 5 4 354.329 261.344 527.53 
120 5 4 356.155 261.568 527.381 
121 6 1 -28.4979 -801.257 -126.494 
122 6 2 -29.3133 -801.826 -127.658 
123 6 3 -29.9214 -800.809 -128.604 
124 6 3 -31.1273 -800.037 -127.968 
125 6 1 -30.7743 -798.857 -127.203 
126 6 1 -30.3795 -802.79 -127.133 
127 6 4 -27.527 -800.861 -126.776 
128 6 4 -28.2649 -802.173 -125.902 
129 6 4 -29.0056 -800.679 -125.685 
130 6 4 -28.5661 -802.265 -128.3 
131 6 4 -30.1593 -801.16 -129.62 
132 6 4 -29.3132 -799.943 -128.773 
133 6 4 -31.7131 -800.78 -127.508 
134 6 4 -31.7821 -799.714 -128.769 
135 6 4 -31.545 -798.306 -126.735 
136 6 4 -30.4272 -797.992 -127.843 
137 6 4 -29.9845 -799.018 -126.509 
138 6 4 -31.1158 -802.425 -126.361 
139 6 4 -29.9126 -803.839 -126.945 
140 6 4 -30.9525 -802.975 -128.026 
141 7 1 -207.076 11.5278 -435.164 
142 7 2 -207.449 11.2523 -433.684 
143 7 3 -208.916 11.7273 -433.308 
144 7 3 -208.972 13.2461 -433 
145 7 1 -210.379 13.7596 -432.758 
146 7 1 -206.401 11.8727 -432.708 
147 7 4 -207.818 11.0425 -435.902 
148 7 4 -206.07 11.2504 -435.546 
149 7 4 -207.037 12.5289 -435.417 
150 7 4 -207.413 10.2074 -433.531 
151 7 4 -209.268 11.2411 -432.452 
152 7 4 -209.536 11.458 -434.129 
153 7 4 -208.603 13.6354 -433.924 
154 7 4 -208.378 13.3246 -432.104 
155 7 4 -210.33 14.7757 -432.366 
156 7 4 -210.968 13.0972 -432.074 
157 7 4 -211.125 13.7903 -433.589 
158 7 4 -206.173 12.9254 -432.744 
159 7 4 -205.391 11.4291 -432.866 
160 7 4 -206.631 11.6473 -431.708 
161 8 1 165.133 -755.057 -161.383 
162 8 2 166.118 -753.848 -161.339 
163 8 3 167.538 -754.22 -161.78 
164 8 3 168.192 -755.472 -161.123 
165 8 1 169.678 -755.655 -161.371 
166 8 1 165.983 -753.209 -159.913 
167 8 4 165.357 -755.809 -160.602 
168 8 4 165.118 -755.601 -162.396 
169 8 4 164.138 -754.749 -161.049 
170 8 4 165.757 -753.084 -161.975 
171 8 4 168.182 -753.377 -161.648 
172 8 4 167.395 -754.419 -162.853 
173 8 4 167.694 -756.401 -161.558 
174 8 4 168.071 -755.465 -160.07 
175 8 4 169.777 -755.323 -162.395 
176 8 4 170.046 -756.625 -161.084 
177 8 4 170.277 -754.903 -160.812 
178 8 4 166.474 -752.3 -159.869 
179 8 4 166.501 -753.742 -159.112 
180 8 4 164.95 -753.064 -159.624 
181 9 1 199.124 988.471 676.201 
182 9 2 198.567 987.143 675.568 
183 9 3 198.674 987.144 674.076 
184 9 3 198.475 988.401 673.318 
185 9 1 197.059 988.996 673.201 
186 9 1 197.185 986.708 676.01 
187 9 4 198.398 989.238 675.977 
188 9 4 200.014 988.797 675.65 
189 9 4 199.335 988.286 677.253 
190 9 4 199.145 986.343 675.977 
191 9 4 197.907 986.416 673.703 
192 9 4 199.677 986.806 673.888 
193 9 4 198.768 988.185 672.284 
194 9 4 199.157 989.157 673.694 
195 9 4 197.205 989.651 672.261 
196 9 4 196.958 989.725 674.081 
197 9 4 196.287 988.258 673.088 
198 9 4 196.434 987.505 675.759 
199 9 4 196.978 986.482 677.123 
200 9 4 196.907 985.761 675.595 
ITEM: TIMESTEP
1251000
ITEM: NUMBER OF ATOMS
200
ITEM: BOX BOUNDS pp pp pp
-1.5758183936870710e+01 4.0036283940866227e+01
-1.5758183936870710e+01 4.0036283940866227e+01
-1.5758183936870710e+01 4.0036283940866227e+01
ITEM: ATOMS id mol type xu yu zu 
1 0 1 1198.49 -25.8019 260.9 
2 0 2 1199.04 -25.7709 262.397 
3 0 3 1198.4 -24.6172 263.175 
4 0 3 1198.77 -24.5951 264.636 
5 0 1 1198.21 -25.8454 265.389 
6 0 1 1200.58 -25.7825 262.535 
7 0 4 1198.64 -24.9676 260.243 
8 0 4 1197.46 -26.0098 260.894 
9 0 4 1198.84 -26.8206 260.478 
10 0 4 1198.63 -26.6573 262.912 
11 0 4 1197.26 -24.5968 263.133 
12 0 4 1198.71 -23.6223 262.705 
13 0 4 1198.11 -23.9965 265.22 
14 0 4 1199.83 -24.3366 264.802 
15 0 4 1197.22 -26.1399 265.174 
16 0 4 1198.37 -25.7121 266.443 
17 0 4 1198.87 -26.6547 265.162 
18 0 4 1201.11 -26.4969 261.928 
19 0 4 1200.9 -26.0778 263.486 
20 0 4 1201.05 -24.8027 262.421 
21 1 1 475.261 490.598 -305.422 
22 1 2 476.51 490.481 -306.294 
23 1 3 477.123 491.856 -306.594 
24 1 3 476.386 492.478 -307.686 
25 1 1 476.871 493.905 -307.838 
26 1 1 476.384 489.566 -307.479 
27 1 4 475.526 491.056 -304.436 
28 1 4 474.764 489.643 -305.089 
29 1 4 474.449 491.081 -305.963 
30 1 4 477.147 489.976 -305.633 
31 1 4 478.133 491.637 -306.91 
32 1 4 477.203 492.467 -305.651 
33 1 4 475.377 492.497 -307.354 
34 1 4 476.451 491.887 -308.566 
35 1 4 476.322 494.505 -308.599 
36 1 4 477.853 493.899 -308.271 
37 1 4 477.015 494.392 -306.88 
38 1 4 477.431 489.421 -307.89 
39 1 4 475.672 489.872 -308.245 
40 1 4 475.926 488.702 -306.997 
41 2 1 191.619 245.865 100.166 
42 2 2 192.133 244.507 99.8233 
43 2 3 191.155 243.556 99.2023 
44 2 3 191.812 242.274 98.4791 
45 2 1 192.443 242.617 97.0877 
46 2 1 192.907 243.865 101.048 
47 2 4 190.701 245.853 100.806 
48 2 4 191.427 246.338 99.2541 
49 2 4 192.431 246.315 100.779 
50 2 4 193.089 244.665 99.1514 
51 2 4 190.516 244.017 98.4557 
52 2 4 190.46 243.047 99.9563 
53 2 4 190.884 241.603 98.335 
54 2 4 192.497 241.656 99.0301 
55 2 4 193.247 243.3 97.222 
56 2 4 191.753 243.025 96.4651 
57 2 4 192.698 241.762 96.4736 
58 2 4 192.301 243.911 101.932 
59 2 4 193.81 244.386 101.203 
60 2 4 193.132 242.777 100.854 
61 3 1 -137.804 -20.3905 202.761 
62 3 2 -138.967 -21.4058 202.62 
63 3 3 -140.089 -20.9237 201.783 
64 3 3 -139.797 -21.1419 200.268 
65 3 1 -140.411 -22.3943 199.791 
66 3 1 -139.428 -21.9343 204.033 
67 3 4 -138.056 -19.4376 203.109 
68 3 4 -137.34 -20.1619 201.745 
69 3 4 -137.127 -20.7776 203.555 
70 3 4 -138.723 -22.2641 202.112 
71 3 4 -140.103 -19.7853 201.956 
72 3 4 -141.066 -21.2781 202.087 
73 3 4 -138.682 -21.0546 200.157 
74 3 4 -140.213 -20.3841 199.555 
75 3 4 -141.474 -22.1733 199.642 
76 3 4 -140.277 -23.1993 200.533 
77 3 4 -139.872 -22.6545 198.84 
78 3 4 -138.656 -22.6268 204.426 
79 3 4 -140.323 -22.4535 203.971 
80 3 4 -139.606 -21.1482 204.749 
81 4 1 -2066.26 -240.615 -606.756 
82 4 2 -2067.18 -240.789 -608.006 
83 4 3 -2068.52 -240.125 -607.648 
84 4 3 -2069.54 -240.354 -608.879 
85 4 1 -2070.45 -239.169 -609.051 
86 4 1 -2067.37 -242.224 -608.5 
87 4 4 -2066.68 -240.969 -605.842 
88 4 4 -2065.95 -239.549 -606.84 
89 4 4 -2065.37 -241.176 -606.719 
90 4 4 -2066.62 -240.149 -608.688 
91 4 4 -2068.22 -239.043 -607.599 
92 4 4 -2069.03 -240.429 -606.698 
93 4 4 -2070.17 -241.309 -608.732 
94 4 4 -2068.93 -240.525 -609.738 
95 4 4 -2070.01 -238.192 -609.277 
96 4 4 -2071.17 -239.096 -608.302 
97 4 4 -2071.05 -239.245 -609.982 
98 4 4 -2066.39 -242.617 -608.513 
99 4 4 -2067.78 -242.391 -609.471 
100 4 4 -2067.92 -242.738 -607.787 
101 5 1 350.238 259.129 531.087 
102 5 2 351.136 258.416 529.979 
103 5 3 350.318 258.072 528.763 
104 5 3 349.89 259.215 527.93 
105 5 1 349.819 258.785 526.479 
106 5 1 351.756 257.121 530.54 
107 5 4 350.801 259.342 532.024 
108 5 4 349.407 258.383 531.294 
109 5 4 349.797 260.017 530.739 
110 5 4 351.952 259.107 529.666 
111 5 4 349.563 257.371 529.062 
112 5 4 351.05 257.517 528.092 
113 5 4 350.521 260.048 528.117 
114 5 4 348.91 259.624 528.124 
115 5 4 349.137 257.915 526.495 
116 5 4 350.747 258.645 525.943 
117 5 4 349.344 259.559 525.9 
118 5 4 352.546 256.841 529.823 
119 5 4 351.149 256.336 530.994 
120 5 4 352.325 257.492 531.362 
121 6 1 -31.9505 -800.8 -123.769 
122 6 2 -31.5248 -802.073 -124.503 
123 6 3 -31.043 -802.122 -125.923 
124 6 3 -32.0948 -801.677 -126.978 
125 6 1 -31.3871 -801.279 -128.296 
126 6 1 -32.2357 -803.322 -123.969 
127 6 4 -31.3002 -799.981 -124.049 
128 6 4 -31.827 -800.844 -122.719 
129 6 4 -33.049 -800.552 -123.825 
130 6 4 -30.4726 -802.035 -124.152 
131 6 4 -30.5623 -803.059 -126.299 
132 6 4 -30.1592 -801.405 -126.055 
133 6 4 -32.7537 -800.866 -126.759 
134 6 4 -32.796 -802.578 -127.12 
135 6 4 -32.0101 -800.735 -128.957 
136 6 4 -30.7048 -801.94 -128.785 
137 6 4 -30.8053 -800.461 -127.943 
138 6 4 -33.2663 -803.328 -124.147 
139 6 4 -32.2659 -802.983 -122.88 
140 6 4 -31.6411 -804.227 -123.88 
141 7 1 -206.607 14.0832 -434.947 
142 7 2 -207.889 13.5971 -435.654 
143 7 3 -209.062 14.498 -435.203 
144 7 3 -209.797 13.9552 -434.073 
145 7 1 -210.93 14.9234 -433.562 
146 7 1 -208.071 12.0984 -435.533 
147 7 4 -206.31 15.0951 -435.327 
148 7 4 -205.877 13.3645 -435.087 
149 7 4 -206.83 14.1765 -433.912 
150 7 4 -207.585 13.7852 -436.66 
151 7 4 -209.694 14.5451 -436.026 
152 7 4 -208.715 15.4932 -434.941 
153 7 4 -209.163 13.7436 -433.251 
154 7 4 -210.204 12.9334 -434.281 
155 7 4 -211.341 14.5422 -432.649 
156 7 4 -211.763 14.9148 -434.344 
157 7 4 -210.337 15.7824 -433.349 
158 7 4 -208.053 11.6844 -434.58 
159 7 4 -207.261 11.6836 -435.983 
160 7 4 -208.952 11.7293 -436.091 
161 8 1 166.062 -752.399 -164.141 
162 8 2 165.939 -751.373 -163.049 
163 8 3 167.265 -751.172 -162.323 
164 8 3 167.78 -752.546 -161.808 
165 8 1 168.571 -752.488 -160.545 
166 8 1 164.68 -751.516 -162.117 
167 8 4 166.054 -753.396 -163.62 
168 8 4 166.978 -752.466 -164.687 
169 8 4 165.177 -752.383 -164.819 
170 8 4 165.757 -750.384 -163.531 
171 8 4 167.096 -750.575 -161.405 
172 8 4 168.13 -750.647 -162.75 
173 8 4 168.22 -753.144 -162.52 
174 8 4 166.858 -753.117 -161.561 
175 8 4 169.33 -751.81 -160.757 
176 8 4 169.061 -753.497 -160.318 
177 8 4 167.931 -752.11 -159.745 
178 8 4 164.722 -750.866 -161.27 
179 8 4 164.564 -752.461 -161.652 
180 8 4 163.868 -751.32 -162.739 
181 9 1 198.653 987.333 676.975 
182 9 2 197.694 986.444 676.098 
183 9 3 197.852 986.979 674.589 
184 9 3 197.562 988.49 674.365 
185 9 1 196.338 988.722 673.404 
186 9 1 196.209 986.733 676.498 
187 9 4 198.133 988.265 677.373 
188 9 4 199.468 987.752 676.289 
189 9 4 198.914 986.767 677.972 
190 9 4 197.946 985.384 676.184 
191 9 4 197.155 986.414 673.995 
192 9 4 198.921 986.853 674.214 
193 9 4 198.431 989.092 673.992 
194 9 4 197.432 988.997 675.357 
195 9 4 196.253 989.83 673.33 
196 9 4 195.393 988.186 673.69 
197 9 4 196.634 988.476 672.363 
198 9 4 195.941 987.812 676.629 
199 9 4 196.059 986.259 677.423 
200 9 4 195.614 986.322 675.809 
ITEM: TIMESTEP
1252000
ITEM: NUMBER OF ATOMS
200
ITEM: BOX BOUNDS pp pp pp
-1.5751677591323464e+01 4.0029777595318976e+01
-1.5751677591323464e+01 4.0029777595318976e+01
-1.5751677591323464e+01 4.0029777595318976e+01
ITEM: ATOMS id mol type xu yu zu 
1 0 1 1199.9 -26.6345 262.297 
2 0 2 1199.35 -26.0465 263.544 
3 0 3 1198.56 -24.7019 263.344 
4 0 3 1197.83 -24.3571 264.57 
5 0 1 1196.62 -25.2163 264.742 
6 0 1 1200.36 -26.0502 264.676 
7 0 4 1200.64 -25.9225 261.957 
8 0 4 1199.23 -26.5868 261.52 
9 0 4 1200.41 -27.5475 262.439 
10 0 4 1198.74 -26.8452 263.867 
11 0 4 1197.93 -24.9573 262.454 
12 0 4 1199.19 -23.8466 263.01 
13 0 4 1197.39 -23.3944 264.595 
14 0 4 1198.53 -24.4598 265.385 
15 0 4 1195.78 -25.0979 264.013 
16 0 4 1196.12 -24.9231 265.646 
17 0 4 1196.86 -26.2204 264.894 
18 0 4 1201.12 -26.8295 264.747 
19 0 4 1199.94 -26.2674 265.628 
20 0 4 1200.93 -25.1475 264.835 
21 1 1 480.166 488.738 -304.933 
22 1 2 480.798 488.368 -306.259 
23 1 3 482.041 489.313 -306.545 
24 1 3 481.592 490.762 -306.466 
25 1 1 482.506 491.731 -307.146 
26 1 1 479.688 488.319 -307.363 
27 1 4 480.972 488.848 -304.2 
28 1 4 479.627 487.88 -304.531 
29 1 4 479.562 489.664 -304.896 
30 1 4 481.15 487.317 -306.152 
31 1 4 482.518 489.062 -307.507 
32 1 4 482.845 489.201 -305.818 
33 1 4 481.638 491.058 -305.463 
34 1 4 480.578 491.024 -306.796 
35 1 4 482.811 492.647 -306.646 
36 1 4 482.13 492.079 -308.151 
37 1 4 483.495 491.264 -307.24 
38 1 4 479.999 487.814 -308.286 
39 1 4 479.221 489.266 -307.721 
40 1 4 478.873 487.63 -307.085 
41 2 1 195.12 240.799 101.26 
42 2 2 194.335 240.849 99.8562 
43 2 3 192.843 240.894 100.267 
44 2 3 191.931 241.381 99.1778 
45 2 1 192.453 242.505 98.3626 
46 2 1 194.685 239.677 98.9112 
47 2 4 194.889 239.927 101.798 
48 2 4 195.174 241.689 101.946 
49 2 4 196.178 240.728 101.002 
50 2 4 194.694 241.843 99.294 
51 2 4 192.591 241.513 101.232 
52 2 4 192.461 239.929 100.549 
53 2 4 190.909 241.592 99.5888 
54 2 4 191.917 240.59 98.4482 
55 2 4 193.353 242.323 97.7314 
56 2 4 192.55 243.384 98.9272 
57 2 4 191.739 242.639 97.5278 
58 2 4 194.403 238.718 99.3252 
59 2 4 195.782 239.685 98.6548 
60 2 4 194.182 239.753 98.0371 
61 3 1 -138.791 -18.9954 201.005 
62 3 2 -139.179 -18.5183 199.563 
63 3 3 -138.246 -17.3955 199.178 
64 3 3 -136.726 -17.6974 198.733 
65 3 1 -136.137 -16.5801 197.896 
66 3 1 -140.649 -18.1886 199.506 
67 3 4 -139.212 -18.3141 201.854 
68 3 4 -137.75 -19.1305 201.184 
69 3 4 -139.213 -19.9278 201.106 
70 3 4 -139.015 -19.2581 198.79 
71 3 4 -138.156 -16.5941 199.899 
72 3 4 -138.764 -16.7917 198.439 
73 3 4 -136.686 -18.6348 198.123 
74 3 4 -136.162 -17.952 199.683 
75 3 4 -136.072 -15.64 198.478 
76 3 4 -136.895 -16.3495 197.144 
77 3 4 -135.172 -16.721 197.474 
78 3 4 -141.259 -19.0511 199.661 
79 3 4 -140.823 -17.9953 198.388 
80 3 4 -140.926 -17.2982 200.226 
81 4 1 -2066.84 -241.409 -611.192 
82 4 2 -2067.76 -242.18 -610.207 
83 4 3 -2068.66 -241.279 -609.354 
84 4 3 -2069.7 -241.881 -608.414 
85 4 1 -2069.29 -242.373 -607.038 
86 4 1 -2066.95 -243.147 -609.332 
87 4 4 -2066.13 -240.82 -610.722 
88 4 4 -2067.53 -240.933 -611.823 
89 4 4 -2066.27 -241.978 -611.897 
90 4 4 -2068.56 -242.689 -610.789 
91 4 4 -2069.12 -240.75 -610.143 
92 4 4 -2068.09 -240.618 -608.706 
93 4 4 -2070.22 -242.71 -608.982 
94 4 4 -2070.51 -241.287 -608.226 
95 4 4 -2068.87 -241.609 -606.311 
96 4 4 -2068.53 -243.113 -607.105 
97 4 4 -2070.15 -242.964 -606.665 
98 4 4 -2066.33 -243.591 -610.134 
99 4 4 -2067.64 -243.898 -608.899 
100 4 4 -2066.3 -242.558 -608.669 
101 5 1 345.336 256.249 533.119 
102 5 2 346.493 256.597 532.147 
103 5 3 346.563 258.151 531.716 
104 5 3 346.503 259.045 532.936 
105 5 1 346.45 260.453 532.59 
106 5 1 346.344 255.771 530.887 
107 5 4 345.245 255.184 533.255 
108 5 4 344.321 256.681 532.905 
109 5 4 345.604 256.662 534.108 
110 5 4 347.483 256.396 532.499 
111 5 4 345.78 258.368 530.984 
112 5 4 347.416 258.408 531.133 
113 5 4 347.348 258.846 533.54 
114 5 4 345.638 258.799 533.541 
115 5 4 345.57 260.681 531.956 
116 5 4 347.37 260.855 532.088 
117 5 4 346.323 260.992 533.515 
118 5 4 347.161 255.882 530.266 
119 5 4 345.45 256.073 530.311 
120 5 4 346.25 254.694 531.135 
121 6 1 -33.3163 -804.055 -123.245 
122 6 2 -33.4109 -802.502 -123.456 
123 6 3 -33.4554 -802.204 -124.956 
124 6 3 -32.4129 -802.912 -125.764 
125 6 1 -32.6327 -802.438 -127.203 
126 6 1 -32.2802 -801.694 -122.694 
127 6 4 -34.159 -804.755 -123.629 
128 6 4 -33.5284 -804.301 -122.205 
129 6 4 -32.2571 -804.376 -123.418 
130 6 4 -34.3792 -802.131 -123.09 
131 6 4 -33.1521 -801.144 -124.915 
132 6 4 -34.4405 -802.366 -125.335 
133 6 4 -32.5207 -803.995 -125.879 
134 6 4 -31.4536 -802.505 -125.391 
135 6 4 -31.6503 -802.288 -127.516 
136 6 4 -32.9916 -801.489 -127.305 
137 6 4 -33.0919 -802.994 -128.033 
138 6 4 -31.3642 -801.68 -123.273 
139 6 4 -31.988 -801.906 -121.61 
140 6 4 -32.5548 -800.694 -122.728 
141 7 1 -207.799 13.8618 -436.508 
142 7 2 -208.032 15.4733 -436.449 
143 7 3 -209.166 15.6537 -435.407 
144 7 3 -210.583 15.7426 -435.967 
145 7 1 -211.601 15.9332 -434.884 
146 7 1 -208.222 16.0462 -437.828 
147 7 4 -207.634 13.454 -435.574 
148 7 4 -206.955 13.7719 -437.143 
149 7 4 -208.716 13.3532 -436.936 
150 7 4 -207.085 15.8245 -436.101 
151 7 4 -208.968 16.5733 -434.924 
152 7 4 -209.093 14.9141 -434.676 
153 7 4 -210.776 14.8169 -436.534 
154 7 4 -210.669 16.6042 -436.633 
155 7 4 -212.648 15.7524 -435.203 
156 7 4 -211.657 16.9121 -434.456 
157 7 4 -211.555 15.2563 -434.005 
158 7 4 -208.869 15.5867 -438.594 
159 7 4 -207.356 16.192 -438.381 
160 7 4 -208.518 17.1265 -437.836 
161 8 1 167.192 -748.866 -165.246 
162 8 2 165.898 -748.438 -164.462 
163 8 3 166.077 -748.066 -163.012 
164 8 3 166.769 -749.185 -162.28 
165 8 1 166.431 -749.208 -160.789 
166 8 1 164.841 -749.363 -164.847 
167 8 4 167.623 -749.826 -164.961 
168 8 4 167.997 -748.159 -165.093 
169 8 4 167.117 -749.026 -166.344 
170 8 4 165.58 -747.516 -165.03 
171 8 4 165.035 -747.98 -162.636 
172 8 4 166.588 -747.064 -162.972 
173 8 4 167.842 -749.055 -162.331 
174 8 4 166.44 -750.11 -162.704 
175 8 4 166.802 -748.274 -160.189 
176 8 4 166.835 -750.063 -160.422 
177 8 4 165.387 -749.276 -160.716 
178 8 4 164 -748.77 -164.613 
179 8 4 164.905 -750.272 -164.25 
180 8 4 164.937 -749.559 -165.917 
181 9 1 197.812 986.737 677.285 
182 9 2 196.757 986.002 676.49 
183 9 3 196.612 986.767 675.18 
184 9 3 196.548 988.322 675.343 
185 9 1 196.308 989.03 673.935 
186 9 1 195.483 985.79 677.226 
187 9 4 197.177 987.356 677.871 
188 9 4 198.717 987.063 676.764 
189 9 4 198.283 985.945 677.901 
190 9 4 197.222 985.033 676.333 
191 9 4 195.676 986.489 674.633 
192 9 4 197.421 986.53 674.489 
193 9 4 197.526 988.777 675.691 
194 9 4 195.695 988.685 676.06 
195 9 4 196.325 990.045 674.148 
196 9 4 195.367 988.822 673.51 
197 9 4 197.087 988.723 673.17 
198 9 4 194.955 986.756 677.235 
199 9 4 195.656 985.641 678.245 
200 9 4 194.887 985.065 676.681 
ITEM: TIMESTEP
1253000
ITEM: NUMBER OF ATOMS
200
ITEM: BOX BOUNDS pp pp pp
-1.5745171245776216e+01 4.0023271249771732e+01
-1.5745171245776216e+01 4.0023271249771732e+01
-1.5745171245776216e+01 4.0023271249771732e+01
ITEM: ATOMS id mol type xu yu zu 
1 0 1 1201.24 -26.5711 264.058 
2 0 2 1199.77 -26.729 264.255 
3 0 3 1198.99 -25.4602 263.993 
4 0 3 1197.43 -25.5564 264.068 
5 0 1 1196.77 -25.7857 262.687 
6 0 1 1199.51 -27.2699 265.616 
7 0 4 1201.82 -26.0704 264.82 
8 0 4 1201.35 -25.9063 263.257 
9 0 4 1201.61 -27.4737 263.722 
10 0 4 1199.53 -27.496 263.523 
11 0 4 1199.27 -24.9908 263.059 
12 0 4 1199.3 -24.7109 264.733 
13 0 4 1197.09 -24.6079 264.452 
14 0 4 1197.09 -26.2505 264.865 
15 0 4 1196.92 -24.9211 261.961 
16 0 4 1195.67 -25.94 262.797 
17 0 4 1197.22 -26.6756 262.168 
18 0 4 1198.39 -27.5173 265.795 
19 0 4 1199.85 -26.5809 266.341 
20 0 4 1200 -28.1825 265.714 
21 1 1 486.335 486.016 -304.389 
22 1 2 485.219 486.649 -305.326 
23 1 3 485.842 487.218 -306.608 
24 1 3 486.993 488.232 -306.35 
25 1 1 487.318 489.167 -307.501 
26 1 1 484.244 487.671 -304.636 
27 1 4 487.091 485.381 -304.908 
28 1 4 485.787 485.418 -303.644 
29 1 4 486.871 486.715 -303.755 
30 1 4 484.581 485.769 -305.661 
31 1 4 485.079 487.684 -307.174 
32 1 4 486.204 486.329 -307.179 
33 1 4 487.944 487.675 -306.314 
34 1 4 486.772 488.726 -305.449 
35 1 4 488.094 489.901 -307.249 
36 1 4 486.407 489.563 -307.974 
37 1 4 487.752 488.563 -308.4 
38 1 4 483.592 488.116 -305.354 
39 1 4 484.903 488.459 -304.192 
40 1 4 483.61 487.232 -303.876 
41 2 1 195.77 236.759 98.5438 
42 2 2 195.454 238.154 99.124 
43 2 3 195.062 238.037 100.589 
44 2 3 194.782 239.423 101.322 
45 2 1 195.962 240.297 101.558 
46 2 1 194.31 238.758 98.2402 
47 2 4 194.916 236.115 98.5213 
48 2 4 196.508 236.325 99.1885 
49 2 4 196.179 236.988 97.5682 
50 2 4 196.347 238.928 99.0473 
51 2 4 195.812 237.453 101.169 
52 2 4 194.26 237.327 100.573 
53 2 4 194.424 239.062 102.348 
54 2 4 193.891 239.897 100.893 
55 2 4 196.285 240.751 100.633 
56 2 4 196.765 239.594 101.924 
57 2 4 195.891 241.107 102.289 
58 2 4 193.363 238.323 98.6163 
59 2 4 194.386 238.575 97.1765 
60 2 4 194.248 239.86 98.4611 
61 3 1 -138.272 -15.3994 195.293 
62 3 2 -137.248 -14.2444 195.562 
63 3 3 -137.196 -13.8796 197.128 
64 3 3 -136.814 -15.1112 197.999 
65 3 1 -136.808 -14.9509 199.502 
66 3 1 -137.459 -13.0376 194.797 
67 3 4 -139.32 -15.0949 195.459 
68 3 4 -138.026 -16.2267 195.938 
69 3 4 -138.175 -15.8202 194.326 
70 3 4 -136.21 -14.6148 195.324 
71 3 4 -138.081 -13.4181 197.461 
72 3 4 -136.489 -13.1518 197.321 
73 3 4 -135.803 -15.3836 197.751 
74 3 4 -137.548 -15.8821 197.933 
75 3 4 -137.5 -14.1251 199.561 
76 3 4 -135.771 -14.5594 199.728 
77 3 4 -137.09 -15.8104 200.055 
78 3 4 -137.338 -13.034 193.657 
79 3 4 -136.743 -12.2892 195.205 
80 3 4 -138.405 -12.6161 195.027 
81 4 1 -2071.48 -241.196 -611.336 
82 4 2 -2069.94 -241.149 -611.13 
83 4 3 -2069.74 -242.118 -609.875 
84 4 3 -2068.38 -242.911 -609.959 
85 4 1 -2067.15 -242.19 -609.49 
86 4 1 -2069.39 -239.759 -610.968 
87 4 4 -2072.04 -240.501 -610.625 
88 4 4 -2071.8 -242.206 -611.231 
89 4 4 -2071.85 -240.949 -612.361 
90 4 4 -2069.49 -241.479 -612.079 
91 4 4 -2070.53 -242.736 -609.632 
92 4 4 -2069.5 -241.514 -609.021 
93 4 4 -2068.14 -243.284 -610.994 
94 4 4 -2068.61 -243.745 -609.378 
95 4 4 -2067.14 -241.382 -608.737 
96 4 4 -2066.88 -241.552 -610.317 
97 4 4 -2066.26 -242.798 -609.375 
98 4 4 -2069.81 -239.251 -611.871 
99 4 4 -2068.25 -239.793 -611.025 
100 4 4 -2069.65 -239.175 -610.05 
101 5 1 340.758 255.976 533.971 
102 5 2 341.638 257.163 534.39 
103 5 3 341.72 257.355 535.89 
104 5 3 342.465 256.257 536.599 
105 5 1 343.221 256.613 537.881 
106 5 1 341.4 258.418 533.639 
107 5 4 340.967 255.856 532.897 
108 5 4 339.716 256.105 534.093 
109 5 4 341.094 255.041 534.491 
110 5 4 342.606 256.928 533.968 
111 5 4 340.742 257.48 536.324 
112 5 4 342.33 258.207 535.997 
113 5 4 343.28 255.93 535.947 
114 5 4 341.904 255.394 536.674 
115 5 4 342.505 256.766 538.674 
116 5 4 343.87 257.499 537.824 
117 5 4 343.779 255.738 538.276 
118 5 4 342.148 259.167 533.723 
119 5 4 340.538 258.907 534.138 
120 5 4 341.154 258.14 532.618 
121 6 1 -35.8314 -801.744 -123.025 
122 6 2 -34.9685 -802.629 -122.258 
123 6 3 -33.6 -802.922 -122.833 
124 6 3 -33.6266 -803.474 -124.274 
125 6 1 -32.2986 -803.323 -124.847 
126 6 1 -35.7829 -803.838 -121.868 
127 6 4 -35.3679 -800.814 -123.323 
128 6 4 -36.6905 -801.439 -122.566 
129 6 4 -36.2639 -802.347 -123.814 
130 6 4 -34.7816 -801.824 -121.55 
131 6 4 -33.1886 -803.748 -122.226 
132 6 4 -32.9234 -802.027 -122.722 
133 6 4 -34.3038 -802.833 -124.892 
134 6 4 -33.903 -804.508 -124.23 
135 6 4 -32.0371 -802.357 -125.14 
136 6 4 -32.2378 -804.077 -125.608 
137 6 4 -31.4358 -803.597 -124.204 
138 6 4 -35.7951 -804.526 -122.772 
139 6 4 -36.7713 -803.602 -121.473 
140 6 4 -35.1528 -804.353 -121.238 
141 7 1 -208.905 17.4625 -439.369 
142 7 2 -208.721 16.6754 -438.072 
143 7 3 -210.194 16.2977 -437.564 
144 7 3 -210.897 17.5854 -437.031 
145 7 1 -212.203 17.1161 -436.424 
146 7 1 -207.758 17.3036 -437.04 
147 7 4 -209.313 16.9489 -440.166 
148 7 4 -207.891 17.7102 -439.733 
149 7 4 -209.415 18.3972 -439.148 
150 7 4 -208.277 15.7368 -438.376 
151 7 4 -209.999 15.6433 -436.728 
152 7 4 -210.71 15.7809 -438.31 
153 7 4 -211.241 18.2243 -437.84 
154 7 4 -210.289 18.1786 -436.354 
155 7 4 -212.671 18.0014 -435.957 
156 7 4 -212.128 16.3308 -435.707 
157 7 4 -212.978 16.9428 -437.26 
158 7 4 -207.918 18.3272 -436.877 
159 7 4 -206.805 17.253 -437.529 
160 7 4 -207.814 16.8093 -436.196 
161 8 1 168.683 -746.837 -165.1 
162 8 2 167.287 -747.375 -165.629 
163 8 3 166.114 -747.386 -164.574 
164 8 3 166.437 -748.068 -163.276 
165 8 1 165.181 -748.274 -162.343 
166 8 1 167.333 -748.789 -166.279 
167 8 4 168.945 -747.487 -164.286 
168 8 4 168.406 -745.856 -164.587 
169 8 4 169.546 -746.71 -165.742 
170 8 4 166.96 -746.602 -166.412 
171 8 4 165.152 -747.812 -164.997 
172 8 4 165.966 -746.302 -164.29 
173 8 4 167.215 -747.497 -162.796 
174 8 4 166.913 -749.043 -163.483 
175 8 4 164.922 -747.317 -162.027 
176 8 4 165.47 -748.849 -161.405 
177 8 4 164.416 -748.874 -162.931 
178 8 4 166.419 -749.068 -166.84 
179 8 4 167.602 -749.553 -165.552 
180 8 4 168.14 -748.695 -167.051 
181 9 1 197.067 985.901 677.814 
182 9 2 195.896 985.608 676.824 
183 9 3 195.999 986.6 675.649 
184 9 3 195.505 987.973 676.181 
185 9 1 195.7 988.92 675.051 
186 9 1 194.49 985.553 677.55 
187 9 4 197.045 986.872 678.15 
188 9 4 198.041 985.79 677.3 
189 9 4 197.183 985.147 678.54 
190 9 4 196.016 984.692 676.358 
191 9 4 195.37 986.156 674.911 
192 9 4 197.012 986.626 675.27 
193 9 4 195.969 988.238 677.105 
194 9 4 194.481 987.976 676.363 
195 9 4 195.142 989.794 675.295 
196 9 4 195.537 988.44 674.133 
197 9 4 196.74 989.148 674.912 
198 9 4 194.346 986.341 678.233 
199 9 4 194.348 984.698 678.149 
200 9 4 193.72 985.777 676.856 
ITEM: TIMESTEP
1254000
ITEM: NUMBER OF ATOMS
200
ITEM: BOX BOUNDS pp pp pp
-1.5738664900228969e+01 4.0016764904224480e+01
-1.5738664900228969e+01 4.0016764904224480e+01
-1.5738664900228969e+01 4.0016764904224480e+01
ITEM: ATOMS id mol type xu yu zu 
1 0 1 1200.03 -27.382 265.815 
2 0 2 1198.9 -26.6994 264.95 
3 0 3 1198.93 -25.2254 265.365 
4 0 3 1197.69 -24.5909 264.729 
5 0 1 1197.65 -24.4126 263.169 
6 0 1 1197.63 -27.2848 265.432 
7 0 4 1200.03 -27.1043 266.859 
8 0 4 1200.92 -26.8746 265.486 
9 0 4 1200.15 -28.4054 265.605 
10 0 4 1199.02 -26.7671 263.849 
11 0 4 1199.87 -24.6848 265.027 
12 0 4 1198.98 -25.1289 266.48 
13 0 4 1197.87 -23.5954 265.034 
14 0 4 1196.73 -24.9343 265.117 
15 0 4 1198.27 -23.6422 262.8 
16 0 4 1196.63 -24.1983 262.859 
17 0 4 1197.99 -25.3626 262.732 
18 0 4 1197.03 -27.2732 264.445 
19 0 4 1197.21 -26.7476 266.185 
20 0 4 1197.56 -28.3122 265.666 
21 1 1 490.252 484.042 -303.812 
22 1 2 490.409 485.552 -303.91 
23 1 3 490.471 486.142 -305.36 
24 1 3 491.344 485.399 -306.368 
25 1 1 491.487 486.102 -307.765 
26 1 1 491.651 485.943 -303.196 
27 1 4 489.431 483.781 -304.462 
28 1 4 490.029 483.741 -302.783 
29 1 4 491.09 483.47 -304.285 
30 1 4 489.582 485.998 -303.435 
31 1 4 490.704 487.221 -305.161 
32 1 4 489.434 486.262 -305.68 
33 1 4 490.976 484.383 -306.431 
34 1 4 492.412 485.311 -306.015 
35 1 4 492.12 485.54 -308.504 
36 1 4 491.933 487.074 -307.654 
37 1 4 490.513 486.094 -308.236 
38 1 4 492.002 486.982 -303.458 
39 1 4 492.418 485.267 -303.507 
40 1 4 491.55 485.914 -302.084 
41 2 1 195.335 236.946 98.9237 
42 2 2 196.505 236.694 99.8283 
43 2 3 196.475 235.157 100.165 
44 2 3 197.647 234.673 100.979 
45 2 1 199.066 234.727 100.348 
46 2 1 196.265 237.636 101.063 
47 2 4 194.385 236.705 99.4579 
48 2 4 195.335 236.292 98.0583 
49 2 4 195.222 237.984 98.5757 
50 2 4 197.358 236.8 99.1143 
51 2 4 196.484 234.612 99.2956 
52 2 4 195.475 234.942 100.578 
53 2 4 197.422 233.659 101.12 
54 2 4 197.719 235.146 101.995 
55 2 4 199.152 235.795 100.248 
56 2 4 199.071 234.207 99.3379 
57 2 4 199.861 234.319 100.967 
58 2 4 195.507 237.343 101.726 
59 2 4 196.024 238.598 100.634 
60 2 4 197.238 237.74 101.679 