LAMMPS (21 Jul 2020)
Reading data file ...
  orthogonal box = (0.0000000 0.0000000 0.0000000) to (24.278100 24.278100 24.278100)
  4 by 4 by 7 MPI processor grid
  reading atoms ...
  200 atoms
  scanning bonds ...
  4 = max bonds/atom
  scanning angles ...
  6 = max angles/atom
  scanning dihedrals ...
  9 = max dihedrals/atom
  reading bonds ...
  190 bonds
  reading angles ...
  360 angles
  reading dihedrals ...
  450 dihedrals
Finding 1-2 1-3 1-4 neighbors ...
  special bond factors lj:    0.0      0.0      0.0     
  special bond factors coul:  0.0      0.0      0.0     
     4 = max # of 1-2 neighbors
     9 = max # of 1-3 neighbors
    15 = max # of 1-4 neighbors
    19 = max # of special neighbors
  special bonds CPU = 0.011 seconds
  read_data CPU = 0.064 seconds
Neighbor list info ...
  update every 1 steps, delay 0 steps, check yes
  max neighbors/atom: 50000, page size: 500000
  master list distance cutoff = 14
  ghost atom cutoff = 14
  binsize = 7, bins = 4 4 4
  1 neighbor lists, perpetual/occasional/extra = 1 0 0
  (1) pair lj/cut/coul/cut, perpetual
      attributes: half, newton on
      pair build: half/bin/newton
      stencil: half/bin/3d/newton
      bin: standard
Setting up cg style minimization ...
  Unit style    : real
  Current step  : 0
Per MPI rank memory allocation (min/avg/max) = 17.06 | 17.17 | 17.53 Mbytes
Step Temp Press Density Pxx Pyy Pzz Pxy Pxz Pyz PotEng KinEng TotEng E_vdwl E_coul E_pair E_bond E_angle E_dihed E_impro E_mol E_tail Enthalpy Volume 
       0       373.15   -2333.7935   0.10000088   -2240.6944    -2350.605   -2410.0811    3.5193193    214.62936   -33.033882    171.75614    221.34556     393.1017   -29.826744    164.36008    134.53333    14.292222    12.577568    10.353017            0    37.222806  -0.36623134   -93.958236    14310.147 
       3       373.15    202.59621   0.10000088    135.74994    184.77238     287.2663    18.123562    29.565844   -20.125923     155.8069    221.34556    377.15246    -30.07943    163.09295    133.01352    2.5053255    9.7726199    10.515433            0    22.793378  -0.36623134    419.43405    14310.147 
Loop time of 0.00778355 on 112 procs for 3 steps with 200 atoms

97.0% CPU use with 112 MPI tasks x no OpenMP threads

Minimization stats:
  Stopping criterion = linesearch alpha is zero
  Energy initial, next-to-last, final = 
      171.756137492054   155.806899221415   155.806899221415
  Force two-norm initial, final = 174.0287134818597 45.11312326381944
  Force max component initial, final = 17.087697375053185 6.2572287541875165
  Final line search alpha, max atom move = 5.968800853642793e-12 3.734815232943268e-11
  Iterations, force evaluations = 3 66

MPI task timing breakdown:
Section |  min time  |  avg time  |  max time  |%varavg| %total
---------------------------------------------------------------
Pair    | 5.629e-06  | 0.00015296 | 0.0014167  |   0.0 |  1.97
Bond    | 1.0197e-05 | 8.2499e-05 | 0.00078037 |   0.0 |  1.06
Neigh   | 0          | 0          | 0          |   0.0 |  0.00
Comm    | 0.0030873  | 0.0047744  | 0.0057153  |   0.7 | 61.34
Output  | 0          | 0          | 0          |   0.0 |  0.00
Modify  | 0          | 0          | 0          |   0.0 |  0.00
Other   |            | 0.002774   |            |       | 35.63

Nlocal:        1.78571 ave          18 max           0 min
Histogram: 83 10 3 8 0 1 3 3 0 1
Nghost:        514.438 ave         713 max         335 min
Histogram: 5 3 14 20 17 22 17 5 7 2
Neighs:        118.964 ave        1225 max           0 min
Histogram: 85 8 3 5 3 3 2 2 0 1

Total # of neighbors = 13324
Ave neighs/atom = 66.620000
Ave special neighs/atom = 10.000000
Neighbor list builds = 0
Dangerous builds = 0
System init for write_restart ...
Setting up Verlet run ...
  Unit style    : real
  Current step  : 0
  Time step     : 1.0
Per MPI rank memory allocation (min/avg/max) = 14.67 | 14.78 | 15.14 Mbytes
Step Temp Press Density Pxx Pyy Pzz Pxy Pxz Pyz PotEng KinEng TotEng E_vdwl E_coul E_pair E_bond E_angle E_dihed E_impro E_mol E_tail Enthalpy Volume 
       0       373.15    202.59621   0.10000088    135.74994    184.77238     287.2663    18.123562    29.565844   -20.125923     155.8069    221.34556    377.15246    -30.07943    163.09295    133.01352    2.5053255    9.7726199    10.515433            0    22.793378  -0.36623134    419.43405    14310.147 
    1000    902.52462    16.258551   0.10000088   -102.01222    -170.7098    321.49768    350.34356    254.75262   -351.83269    547.90731    535.36064     1083.268    2.2638229    161.38731    163.65113    116.91391    213.53005    53.812221            0    384.25618  -0.36623134    1086.6611    14310.147 
    2000     917.3506   -1410.1669   0.10000088   -28.487496   -3037.2077   -1164.8056   -376.15418   -318.10213   -172.17211    628.89366    544.15513    1173.0488    3.1403443      172.682    175.82234     148.5442    232.09022    72.436899            0    453.07132  -0.36623134    878.74864    14310.147 
    3000    1024.3856    -2028.458   0.10000088   -1934.2746    -2173.354   -1977.7454   -543.80622   -307.96402    -127.8604    655.18027    607.64626    1262.8265   -5.0937913     164.1164    159.02261    163.96409    271.72604    60.467526            0    496.15766  -0.36623134    839.48975    14310.147 
    4000    1039.7065   -677.08128   0.10000088   -1420.4405    -580.8799   -29.923425   -1848.8658    24.175192    1290.0886     687.0647    616.73436    1303.7991  -0.78834721    162.38573    161.59738    175.22936    286.35489     63.88307            0    525.46732  -0.36623134     1162.493    14310.147 
    5000    1011.2119   -1336.3352   0.10000088   -1636.6925   -352.56692   -2019.7461    2473.4842    386.88127    1290.7595    686.80917    599.83188    1286.6411    6.2150187    120.50918    126.72419    199.47468    298.08887    62.521434            0    560.08498  -0.36623134    1007.7495    14310.147 
    6000    984.19338    240.96638   0.10000088    946.92374   -459.20746    235.18285    707.42463    1238.3928   -127.60768    663.25209    583.80501    1247.0571   -6.7329746    144.07858     137.3456    181.93456    276.56238     67.40955            0    525.90649  -0.36623134    1297.3465    14310.147 
    7000    998.67232    1712.8898   0.10000088    1754.4532    718.02221    2666.1939   -461.17018   -131.32311    425.53614     662.9417    592.39364    1255.3353   -1.5022508    149.72395     148.2217    161.91757    286.25643    66.546003            0       514.72  -0.36623134    1612.8134    14310.147 
    8000    1002.5516    897.32954   0.10000088      660.636     338.6227    1692.7299     356.9401    1318.1593   -705.91923    676.19866    594.69479    1270.8935   -6.1215964    158.27934    152.15775    198.72334    266.43839    58.879179            0    524.04092  -0.36623134    1458.1651    14310.147 
    9000    1091.3213   -3.1125249   0.10000088   -1180.1059   -1107.7577     2278.526    659.52037   -535.28589   -13.907455    696.99777    647.35127     1344.349   -3.4661351    156.89543     153.4293     201.7212    282.02403    59.823242            0    543.56847  -0.36623134    1343.6995    14310.147 
   10000    955.84935   -2.1035737   0.10000088   -1334.0117    361.11805    966.58294    1964.2539    335.11415    636.49308    717.89278    566.99186    1284.8846   0.41624873    131.93577    132.35202    216.72722    310.98096    57.832582            0    585.54076  -0.36623134    1284.4456    14310.147 
   11000    912.48472    1229.1881   0.10000088    628.87378    1821.3706    1237.3199   -1072.7594    521.13705    313.97817    673.81716    541.26878    1215.0859    2.5746352    146.70014    149.27478    182.51865    286.68563    55.338105            0    524.54238  -0.36623134     1471.616    14310.147 
   12000    1066.7517    942.09033   0.10000088    243.56436    1758.3731    824.33359   -1116.2088    591.80496    75.539603    688.39319    632.77707    1321.1703   -2.9450801    146.11771    143.17263    206.81666    277.46575    60.938154            0    545.22056  -0.36623134    1517.7834    14310.147 
   13000    989.06249    1031.6648   0.10000088     1867.151    1442.0037   -214.16038   -831.46476   -1100.6357     971.1678    753.29288    586.69327    1339.9862   0.36520141    172.30654    172.67174    197.22355    324.54096     58.85663            0    580.62114  -0.36623134    1555.2934    14310.147 
   14000    945.52082   -217.35268   0.10000088   -518.98969    414.88012   -547.94847   -1435.3399    751.21612   -262.40864    700.87213    560.86518    1261.7373    7.4494064    148.63936    156.08877    214.16135    266.34447    64.277535            0    544.78336  -0.36623134    1216.3761    14310.147 
   15000    979.69105   -295.58267   0.10000088   -893.64357    1711.0233   -1704.1277   -460.86326   -111.92575   -33.259456    717.00748    581.13431    1298.1418    2.2400779    154.42921    156.66929    183.16875    319.87493    57.294511            0    560.33819  -0.36623134     1236.454    14310.147 
   16000    981.19656    2382.7283   0.10000088     2691.895    2455.8843    2000.4056   -1747.8804   -34.147866    485.81372    696.86525    582.02735    1278.8926    6.6958509    126.17244    132.86829    213.04839    291.98314    58.965434            0    563.99696  -0.36623134    1776.1652    14310.147 
   17000    1003.2087   -994.87841   0.10000088   -19.533197   -3524.6194    559.51737   -1491.0375   -260.68757     60.85782    691.86988    595.08453    1286.9544    1.2187384    148.89667    150.11541    218.52567    272.72772    50.501086            0    541.75447  -0.36623134    1079.3245    14310.147 
   18000    1040.7127    119.10039   0.10000088    756.22225   -138.49486   -260.42621    1587.0923   -401.77832   -63.440438     757.2774     617.3312    1374.6086   -1.9287727    162.40094    160.47217    175.86384    361.46173    59.479668            0    596.80524  -0.36623134    1399.4647    14310.147 
   19000    1034.6748    -586.0185   0.10000088   -298.90258   -1246.1795   -212.97343    246.67761    1263.2762   -1315.5112    720.10621    613.74961    1333.8558  -0.10060602    164.28339    164.18278    179.10815    314.16332    62.651963            0    555.92343  -0.36623134    1211.5545    14310.147 
   20000    900.44485    428.04128   0.10000088    2338.5363   -990.78272   -63.629725    301.05792   -1170.2054   -620.83605    678.38733    534.12696    1212.5143   -5.5919721    145.57265    139.98068    204.20477    270.50996    63.691916            0    538.40665  -0.36623134     1301.846    14310.147 
   21000    1030.2212    742.12277   0.10000088    354.64947    1452.7311    418.98778    1783.0835    1587.2488   -515.50869    797.90158    611.10784    1409.0094   -4.0377015    167.71947    163.68177    227.54172    345.16459    61.513508            0    634.21981  -0.36623134    1563.8896    14310.147 
   22000    1081.8878    1405.4358   0.10000088    160.54468    1249.4046    2806.3582    208.71813   -683.13625     324.5631    706.12655    641.75549     1347.882   -2.3606699    132.60107     130.2404    198.50366    316.35204    61.030454            0    575.88615  -0.36623134    1641.1948    14310.147 
   23000    978.39642   -1001.0298   0.10000088    1150.6979   -310.50017   -3843.2871   -552.46332    717.59392     779.6849    728.02405    580.36636    1308.3904   -1.2477955    134.15027    132.90248    177.74464    349.67679    67.700147            0    595.12157  -0.36623134    1099.4767    14310.147 
   24000    1037.9613    484.56901   0.10000088    79.256374    1579.0929   -204.64224    207.75008   -708.42705    941.08676    720.33551    615.69915    1336.0347    4.7350115    141.66815    146.40316    204.23611    310.98229    58.713949            0    573.93235  -0.36623134    1437.1636    14310.147 
   25000    892.59684   -592.23475   0.10000088   -647.20244   -893.84633   -235.65548   -428.91475    531.91153    626.37199    693.17284    529.47166    1222.6445    3.1044129    131.00554    134.10996    191.38863    310.96842     56.70583            0    559.06288  -0.36623134    1099.0458    14310.147 
   26000     1018.606   -675.58239   0.10000088   -1360.8356   -741.35241    75.440809    215.96417   -1155.8649   -1063.5995    728.05082     604.2179    1332.2687   -11.424363    162.95603    151.53167     179.1452    332.69514    64.678822            0    576.51916  -0.36623134    1191.2755    14310.147 
   27000    903.82619   -911.59049   0.10000088   -1943.7574     203.3629   -994.37698    1280.1291    69.695089   -114.87999    692.56131     536.1327     1228.694    2.1829299    151.15433    153.33726    199.47593    275.72892    64.019207            0    539.22405  -0.36623134    1038.4462    14310.147 
   28000    997.88092   -456.73271   0.10000088   -685.57169    -470.5209   -214.10554    867.46359   -1230.6781   -1752.6517    710.84442     591.9242    1302.7686    2.8781276    148.73051    151.60864     184.5808    313.85664    60.798341            0    559.23578  -0.36623134     1207.449    14310.147 
   29000    1004.1905   -1898.9972   0.10000088    84.223465   -2349.4953   -3431.7198   -1161.6875    137.59477   -237.23303    725.51094    595.66694    1321.1779    0.5951741    149.45332    150.04849    229.04923    284.32052    62.092707            0    575.46245  -0.36623134    924.85942    14310.147 
   30000    1002.1939    489.79636   0.10000088   -141.44247    259.58927    1351.2423   -762.10952   -1537.6322    1277.7654     776.2792    594.48258    1370.7618    5.2106474    145.49599    150.70664    248.10099    315.61135    61.860223            0    625.57256  -0.36623134    1472.9817    14310.147 
   31000    990.36498    772.69711   0.10000088    1847.8617    2740.5671   -2270.3375    994.48986    1926.2316    270.22022    717.93899    587.46589    1305.4049    3.0888913    121.64732    124.73621    203.73133    320.82248    68.648969            0    593.20278  -0.36623134    1466.6659    14310.147 
   32000     1044.645   -142.57678   0.10000088    115.46104    239.48723   -782.67862   -393.54766   -1577.0791   -212.75962    765.29143    619.66375    1384.9552   -10.037308    166.62766    156.59035    201.30241    350.67757      56.7211            0    608.70107  -0.36623134    1355.1996    14310.147 
   33000    1132.3102   -1890.6759   0.10000088    205.25953   -3221.6664   -2655.6208   -527.84075   -73.087834    301.06852    740.63953    671.66512    1412.3047    -3.225949    162.43661    159.21066     214.4033    314.91582    52.109748            0    581.42887  -0.36623134    1017.7228    14310.147 
   34000    1011.5703    982.80229   0.10000088    706.40042    2260.7983   -18.791821    1317.1786    -13.78028   -872.42955    660.47748    600.04451     1260.522   -3.1259501    126.66644    123.54049     197.4898    277.82612    61.621061            0    536.93699  -0.36623134    1465.6317    14310.147 
   35000    996.42556    1760.5888   0.10000088     1019.021    1638.0202    2624.7253   -172.77668    -891.1434   -867.37133    731.45142    591.06091    1322.5123    5.5535394    138.19004    143.74357    210.60803    314.44332    62.656497            0    587.70784  -0.36623134    1689.9451    14310.147 
   36000    1064.9723    -934.0937   0.10000088   -883.28705    70.518448   -1989.5125    672.02173    -56.93496   -289.74503    763.22146    631.72156     1394.943    -5.803901    139.69152    133.88762    239.49022    323.06051    66.783111            0    629.33384  -0.36623134    1199.9988    14310.147 
   37000    1061.0072    442.63583   0.10000088    2005.0629   -827.76452    150.60905   -1927.8648   -3.7716958    89.886458    672.22822    629.36952    1301.5977   -1.1360283    123.13017    121.99414    165.74299    322.78443    61.706665            0    550.23409  -0.36623134    1393.9753    14310.147 
   38000    1050.2352    1842.1606   0.10000088    670.65769    2249.7132    2606.1109    80.158227   -400.52573   -755.40755    680.96939    622.97979    1303.9492   -8.2066583     142.3425    134.13585    190.13828     292.9026    63.792671            0    546.83354  -0.36623134    1688.4059    14310.147 
   39000      1007.51   -323.36848   0.10000088    373.78907   -1190.0952   -153.79926    -1140.603    17.370448   -1219.9554    791.20725    597.63597    1388.8432    3.4729219    155.02037    158.49329     207.8072     355.5193    69.387455            0    632.71396  -0.36623134    1321.3566    14310.147 
   40000    1009.6367    211.94832   0.10000088    698.84304    1347.6595   -1410.6576   -846.31471    605.57372    392.27245    676.08549    598.89751     1274.983    7.3200888    139.50916    146.82924    197.85583    274.60724    56.793174            0    529.25624  -0.36623134    1319.2164    14310.147 
   41000    1027.8909    326.02226   0.10000088   -98.705294   -435.16457    1511.9367    496.11528   -1633.3545   -1596.1317    773.31789    609.72554    1383.0434    7.2259758    153.56815    160.79413    225.41193    321.22691    65.884928            0    612.52376  -0.36623134    1451.0839    14310.147 
   42000    1055.7703    989.45222   0.10000088    1179.4885    1576.0535     212.8147    392.12113    449.44886    160.74617    706.63738    626.26308    1332.9005    17.855155    122.38026    140.23541    193.73733    315.15236    57.512277            0    566.40197  -0.36623134     1539.398    14310.147 
   43000    933.35102   -476.02511   0.10000088   -2970.4472     1191.886    350.48583   -50.142348    611.19228   -1524.6211    705.89513    553.64628    1259.5414    3.8085269    148.54936    152.35789    188.50249    308.44069    56.594057            0    553.53724  -0.36623134    1160.1955    14310.147 
   44000    1091.9788    112.87257   0.10000088     642.0206    1802.0727   -2105.4756   -77.914973     1059.141    268.67516    710.89989    647.74127    1358.6412   -2.4455344    172.89932    170.45379    201.21002    277.80551    61.430571            0     540.4461  -0.36623134    1382.1975    14310.147 
   45000     1085.149    1447.9975   0.10000088    1381.6133   -734.67204    3697.0512   -464.31474   -188.29677   -684.57604    690.99674    643.68998    1334.6867    4.7166864    138.36771    143.08439    221.24782    263.41111    63.253414            0    547.91235  -0.36623134    1636.8821    14310.147 
   46000    994.41787    1245.0313   0.10000088    1854.5938    843.71719     1036.783    577.54761    34.503876   -877.65856    669.78827    589.86998    1259.6583   -6.9310065    157.06248    150.13148    179.44434    280.56106    59.651393            0    519.65679  -0.36623134    1519.4948    14310.147 
   47000    999.53176    278.58331   0.10000088    1549.4086    -2322.892    1609.2333    390.55108   -956.59603   -274.56763    736.54085    592.90345    1329.4443   0.47378415    177.65575    178.12953    187.59394    308.63536    62.182022            0    558.41132  -0.36623134    1387.5843    14310.147 
   48000    1058.5072   -61.702746   0.10000088   -809.09169    1165.2775   -541.29405   -1149.3818    -20.75098   -985.24552    655.77996     627.8866    1283.6666    6.7286563    148.93845    155.66711    191.66094    253.26528    55.186631            0    500.11285  -0.36623134    1270.7893    14310.147 
   49000      977.725    248.50219   0.10000088    1114.3525    234.98238   -603.82831    938.97913   -1353.9833    -611.0295    762.84309    579.96809    1342.8112    8.1465193    153.06374    161.21026     210.9729    328.35384    62.306085            0    601.63283  -0.36623134    1394.6733    14310.147 
   50000    1037.7097   -1796.2779   0.10000088   -884.74357   -2902.7419   -1601.3484   -666.53488    420.31158   -538.60166     718.4514     615.5499    1334.0013  -0.55629594     152.6365     152.0802    195.60313    308.93719    61.830879            0     566.3712  -0.36623134    959.12023    14310.147 
   51000    1001.2845   -270.31399   0.10000088    -419.6976    349.83491   -741.07928   -974.16196    2217.3536   -155.86233    706.23878    593.94316    1300.1819   0.56235639    140.92004     141.4824    195.92054    309.86671    58.969138            0    564.75639  -0.36623134    1243.7677    14310.147 
   52000    912.56733    533.37361   0.10000088   -789.90618    883.90701      1506.12    315.96626    46.291801    1700.1903    722.60611    541.31778    1263.9239      2.70707    169.84376    172.55083    180.93696    309.11001    60.008309            0    550.05528  -0.36623134    1375.2383    14310.147 
   53000    1009.1443   -519.43956   0.10000088   -674.37432    125.02459    -1008.969   -1061.6418   -957.01921   -962.56597    684.61463    598.60542      1283.22    1.8727052    170.73547    172.60818    184.90638    265.22704    61.873038            0    512.00645  -0.36623134    1174.8136    14310.147 
   54000    1078.3495   -241.56751   0.10000088    1295.4819   -969.76893   -1050.4155   -788.74596   -440.42471    544.02798    739.64547    639.65667    1379.3021   -5.7630481    165.96657    160.20352     222.5782    298.18083    58.682906            0    579.44194  -0.36623134    1328.8873    14310.147 
   55000    1075.4694   -76.999572   0.10000088    1527.5529    213.83331   -1972.3849    390.59189    349.42772    383.87139     675.8266    637.94823    1313.7748   -2.7258413    157.36481    154.63897    200.78134    263.19198    57.214307            0    521.18763  -0.36623134    1297.7051    14310.147 
   56000    1008.2911   -323.19724   0.10000088      442.812   -82.114397   -1330.2893   -324.00441     828.0807   -773.95531    724.61945    598.09932    1322.7188   0.92863961    152.84291    153.77155    200.44221    306.94695    63.458736            0     570.8479  -0.36623134    1255.2679    14310.147 
   57000    1139.1332    1175.1377   0.10000088   -1465.8014    3258.5871    1732.6274    798.53125    -690.7051    860.08274    674.93495    675.71239    1350.6473   -7.3201921    121.60805    114.28786    175.15847    312.41355    73.075073            0    560.64709  -0.36623134    1595.8972    14310.147 
   58000    910.26752   -142.67493   0.10000088    219.97053   -86.784288   -561.21104   -843.16055   -937.66934   -162.06125    710.72792    539.95358    1250.6815    5.9555968    164.33631    170.29191    176.03858    297.38212     67.01532            0    540.43602  -0.36623134    1220.9054    14310.147 
   59000     1033.884    207.45138   0.10000088    518.52568   -413.49386    517.32231   -1393.0876   -554.97977     719.8798    730.58916    613.28056    1343.8697    1.4293917     155.2117    156.64109    194.92251    320.39005    58.635517            0    573.94807  -0.36623134    1387.1646    14310.147 
   60000    1078.5964   -2329.5282   0.10000088   -320.19748   -3631.6664   -3036.7209    842.84882   -200.53881   -887.58041    705.44873    639.80308    1345.2518  -0.65802014    156.69859    156.04057    215.41577    267.35894    66.633442            0    549.40815  -0.36623134    859.08203    14310.147 
   61000    938.50331    -535.6132   0.10000088   -1712.0099   -1133.4365    1238.6069   -1818.8223    717.78119    620.44327    731.24374    556.70252    1287.9463   -6.3176186     148.9706    142.65298    200.79884    325.88713    61.904788            0    588.59076  -0.36623134    1176.1644    14310.147 
   62000    1147.0443    686.73271   0.10000088    2774.8471    330.42802   -1045.0769    1066.5004    1188.2002    151.42053    746.74584    680.40509    1427.1509   -3.6477128     140.1267    136.47899    211.26892    341.50993    57.487994            0    610.26685  -0.36623134    1570.4712    14310.147 
   63000    1029.0938   -821.75897   0.10000088   -926.16752    690.02486   -2229.1342    1442.1713    427.29413    476.39623    717.14132     610.4391    1327.5804   -4.2055485    144.38535     140.1798    221.95906    291.67151    63.330948            0    576.96152  -0.36623134    1156.0803    14310.147 
   64000    1027.3815    1370.4046   0.10000088    1343.5053    1179.0079    1588.7005    169.40121    882.14634    724.55302     700.0205    609.42338    1309.4439   -4.3462385    156.36367    152.01743    202.10535    283.44388    62.453842            0    548.00307  -0.36623134    1595.4457    14310.147 
   65000    1026.1038   -604.34712   0.10000088   -850.22265    127.68288   -1090.5016    498.47917   -899.65546   -991.92867    772.72493    608.66547    1381.3904    5.3692746    161.89113     167.2604    199.77028    336.43161    69.262644            0    605.46453  -0.36623134    1255.2639    14310.147 
   66000    1044.4824    227.29892   0.10000088   -420.65872    213.17239     889.3831   -2073.5122     407.4679    397.78887    650.51892     619.5673    1270.0862    8.2966253    135.25913    143.55576    185.38498    269.47048    52.107697            0    506.96316  -0.36623134    1317.5232    14310.147 
   67000    903.30355    -177.5923   0.10000088    1373.2156    239.75514   -2145.7476    5.2363553   -385.44596    -491.6726    676.29023    535.82268    1212.1129    -6.485175    140.86985    134.38467    194.84696    285.75798    61.300612            0    541.90555  -0.36623134    1175.0496    14310.147 
   68000    1067.0678   -479.69475   0.10000088    150.61964    164.80176   -1754.5057   -518.21711    1723.0257   -178.36949     703.0203    632.96454    1335.9848   0.25798098    173.41201    173.66999     176.1585     298.4132    54.778611            0    529.35031  -0.36623134    1235.8731    14310.147 
   69000    906.31438   -1319.8346   0.10000088   -1860.4875   -1498.4209   -600.59535    577.60311   -405.31574    -7.813093    715.22161    537.60865    1252.8303    -4.851331     161.1961    156.34477    199.21967    304.94427    54.712902            0    558.87684  -0.36623134    977.38235    14310.147 
   70000     977.1521    259.62424   0.10000088    156.71669    308.94861    313.20742   -750.84121   -869.48562    659.37098    687.13496    579.62826    1266.7632   -2.8761812    141.58439    138.70821    197.04311    286.28365    65.099991            0    548.42675  -0.36623134    1320.9465    14310.147 
   71000    992.59018    763.72361   0.10000088    1886.7592    366.74191    37.669747    279.25558    362.88862   -685.16179     746.1447    588.78583    1334.9305   -8.4260816    150.23383    141.80774    188.56032    359.80493    55.971704            0    604.33695  -0.36623134    1494.3187    14310.147 
   72000    994.99266    1554.2549   0.10000088    290.62154    2607.5479    1764.5953   -744.30284    -699.3828    913.86002    701.35552    590.21094    1291.5665    6.4376708    121.39256    127.83023     195.8544    315.57781    62.093083            0    573.52529  -0.36623134    1615.9376    14310.147 
   73000    1016.0548   -303.17589   0.10000088    510.41126   -1773.8172    353.87831    1105.6656   -740.56095    456.85037    734.60032    602.70463     1337.305   -4.7322158    160.33638    155.60416     207.3694    310.23283    61.393928            0    578.99616  -0.36623134    1274.0325    14310.147 
   74000    971.88718     802.5805   0.10000088     226.7361    1426.4125    754.59287    44.865981    396.80262    698.18645    740.00479     576.5052      1316.51    1.1723987    127.56313    128.73553     192.7583    358.50529    60.005673            0    611.26926  -0.36623134    1484.0076    14310.147 
   75000    946.83493   -349.13191   0.10000088    945.67505   -309.36812   -1683.7027    153.83856    943.64829    45.717982    769.30873    561.64468    1330.9534   -7.1319506     161.2253    154.09335    223.75993    332.40486    59.050592            0    615.21539  -0.36623134      1258.09    14310.147 
   76000    930.22856    654.41694   0.10000088   -987.28287    2347.9763    602.55743    2076.6638   -812.88573     539.0655    788.12391    551.79409     1339.918   -2.6341972    179.84097    177.20677    214.76794    344.78547    51.363724            0    610.91714  -0.36623134     1476.494    14310.147 
   77000    882.91016    152.81348   0.10000088   -2240.9129    1091.6079    1607.7454   -100.69862   -585.32933   -887.23304    718.30017    523.72571    1242.0259    8.1269822     154.2178    162.34478    205.22864    289.42651    61.300237            0    555.95539  -0.36623134    1273.9179    14310.147 
   78000    955.06768   -544.08319   0.10000088   -961.98676   -151.30059   -518.96221    631.67863    298.69108   -1042.1653    736.04673    566.52819    1302.5749   -6.9098061    158.65482    151.74502    201.56915    322.21839    60.514167            0    584.30172  -0.36623134    1189.0254    14310.147 
   79000    985.09461    1151.0517   0.10000088    1574.4417    431.27329    1447.4401    872.40561   -1402.0847    66.167065    816.19049    584.33961    1400.5301   -3.6923725    151.94166    148.24928    203.58295    401.07287    63.285387            0    667.94121  -0.36623134    1640.7532    14310.147 
   80000    983.46554   -554.42567   0.10000088   -509.68135    201.68211   -1355.2778     1353.448   -1165.7811   -120.48623    779.36108    583.37327    1362.7344   -4.2757747    171.47533    167.19956    209.93739    337.20311    65.021025            0    612.16153  -0.36623134    1247.0264    14310.147 
   81000     954.4232   -1317.7697   0.10000088     -1603.84    93.324812    -2442.794    7.5313017   -791.00969    516.00147    742.69219     566.1459    1308.8381   0.79463603    150.41683    151.21147    194.81678     330.9459    65.718047            0    591.48073  -0.36623134    1033.8211    14310.147 
   82000    959.13819   -757.23709   0.10000088    1234.7249   -582.07861   -2924.3575   -471.87164     855.7452   -781.11632    730.85953    568.94274    1299.8023      6.26036    141.69677    147.95713    213.57702    303.01707    66.308298            0    582.90239  -0.36623134    1141.7678    14310.147 
   83000    949.10144    282.19588   0.10000088    1647.5706    703.25921   -1504.2422    1099.2509   -74.340154   -474.58278    732.80076    562.98913    1295.7899    5.4827138    144.82565    150.30837    170.57619    345.10322    66.812984            0     582.4924  -0.36623134    1354.6838    14310.147 
   84000    1035.8842   -1098.8357   0.10000088   -276.70238   -1686.9544   -1332.8505   -122.35462   -1773.5829   -40.726194    759.21022    614.46705    1373.6773    0.7028932    156.91511    157.61801    192.32245    343.43197    65.837785            0    601.59221  -0.36623134    1144.3516    14310.147 
   85000    975.53783   -737.30368   0.10000088   -895.27787   -417.41299   -899.22017    916.88354    720.91329   -1480.5032    744.64518     578.6707    1323.3159   -5.6998397    147.28465    141.58481    211.72918    324.96805    66.363133            0    603.06037  -0.36623134    1169.4415    14310.147 
   86000    1019.7359    1046.5541   0.10000088    608.37444    2580.5511   -49.263328    293.08151    628.83362     629.9624    668.33735    604.88814    1273.2255     10.36793    148.63512    159.00305    167.49476    283.40401    58.435529            0     509.3343  -0.36623134    1491.6401    14310.147 
   87000    1035.1547    276.26767   0.10000088   -621.44615   -528.60878    1978.8579    331.61197   -195.04362   -1318.3876    710.62086    614.03429    1324.6551   -3.5829025    153.15222    149.56932    197.41232    307.11235    56.526868            0    561.05155  -0.36623134    1382.3119    14310.147 
   88000    1045.5101    1078.6792   0.10000088   -468.74669    1685.8527    2018.9314    634.89531    393.70565   -163.17958    714.58265    620.17693    1334.7596   -1.5720701    149.53853    147.96646    192.14065    318.90527    55.570275            0    566.61619  -0.36623134    1559.8786    14310.147 
   89000    1013.3701   -175.81405   0.10000088   -1061.7759   -755.31491    1289.6487   -1419.0315   -393.04905    -525.0255    713.37339    601.11206    1314.4855   0.74719035    163.00308    163.75027     178.1272    310.27148    61.224439            0    549.62312  -0.36623134    1277.7933    14310.147 
   90000    987.05161   -1229.8973   0.10000088    -378.4017   -2571.5002   -739.78998      -435.62   -175.97657   -698.93973    723.77125    585.50046    1309.2717   -5.8062416    146.53247    140.72623    215.57361    302.58615    64.885264            0    583.04502  -0.36623134    1052.5936    14310.147 
   91000    1134.4107    376.83155   0.10000088    1455.1042   -821.83175    497.22222   -8.7984249   -59.412526    798.53146    700.85502    672.91113    1373.7662   -1.4451002    127.16648    125.72138    216.62441    297.47044    61.038785            0    575.13364  -0.36623134    1452.4104    14310.147 
   92000    1101.7248   -129.17518   0.10000088    58.231215   -1120.3426    674.58586    177.26002    386.53936   -819.88499    705.36978    653.52245    1358.8922   0.75008144    173.99557    174.74565    175.84191    302.31619     52.46603            0    530.62413  -0.36623134    1331.9335    14310.147 
   93000    977.45485   -1446.0946   0.10000088   -843.82294   -1566.3219    -1928.139   -286.94156   -1573.5596    575.54775    699.18757    579.80784    1278.9954   -7.0607417    134.55606    127.49532    191.19284     326.2888    54.210607            0    571.69225  -0.36623134    977.19718    14310.147 
   94000    947.33875    1511.3921   0.10000088     1927.175    1065.2274    1541.7738     221.3153   -1812.2769   -328.66735    684.44682    561.94353    1246.3903  -0.68321397    140.59997    139.91676    190.61972    290.48256    63.427786            0    544.53006  -0.36623134    1561.8161    14310.147 
   95000    1081.4179   -125.00296   0.10000088   -1643.6836    682.27186    586.40291    -804.6084   -142.89544   -647.34806    696.67755    641.47677    1338.1543    3.4130555    160.68897    164.10202     171.6394    310.18821    50.747919            0    532.57553  -0.36623134    1312.0664    14310.147 
   96000    1036.0402    1983.3329   0.10000088    3182.7042     1168.419    1598.8757    14.800774    177.75822   -744.56687    768.25892    614.55954    1382.8185   0.49183288    172.89889    173.39072    198.57243    327.68132    68.614457            0     594.8682  -0.36623134    1796.7377    14310.147 
   97000    975.97872    324.70033   0.10000088       2046.2   -776.93832   -295.16075   -1206.1594    577.19282   -187.34622    768.84663    578.93223    1347.7789    4.1346051    174.71726    178.85187    211.61838    322.72742    55.648958            0    589.99476  -0.36623134    1415.5434    14310.147 
   98000    990.08513    48.013806   0.10000088    2375.7064    1021.6925   -3253.3575   -404.54693   -527.48307    85.164394    703.49247    587.29989    1290.7924   -3.5265229    164.41798    160.89145    201.41944    288.92477    52.256809            0    542.60102  -0.36623134    1300.8128    14310.147 
   99000    1070.4468    707.80926   0.10000088    585.99875   -290.10759    1827.5366    1802.2385   -772.46669   -338.70591    731.45376    634.96891    1366.4227   -7.2414739    170.84756    163.60609      216.024    294.76233    57.061339            0    567.84767  -0.36623134    1514.1416    14310.147 
  100000    1021.7321   -588.90219   0.10000088   -1686.7225    985.61542   -1065.5995    1317.9834    245.48546   -484.50756    797.82281    606.07225    1403.8951   -3.9088866    145.40085    141.49197    257.40424    349.52946    49.397142            0    656.33084  -0.36623134    1280.9919    14310.147 
  101000    1017.1153   -125.97878   0.10000088    133.19196   -1065.7037    554.57543   -745.69874    159.87482    -248.1974    703.24293    603.33369    1306.5766   -1.4613075    140.45095    138.98965    200.59096    313.06924    50.593075            0    564.25328  -0.36623134     1280.285    14310.147 
  102000    888.86198   -625.61872   0.10000088   -290.72839    -1247.055    -339.0728     -153.571   -153.68485   -2068.5307    759.96959    527.25621    1287.2258    2.9437552    137.79063    140.73439    211.13091    344.88783    63.216462            0     619.2352  -0.36623134    1156.6599    14310.147 
  103000    1042.3662   -15.751902   0.10000088    824.43184    928.83074   -1800.5183     680.3021   -1323.2089    133.50061    738.68523    618.31204    1356.9973    3.6272244    139.66472    143.29194    208.61087    322.70069    64.081734            0    595.39329  -0.36623134    1353.7099    14310.147 
  104000    1072.7947    489.65868   0.10000088    864.14472    815.76323   -210.93192   -1265.0611    755.43499   -1447.3333    711.41921    636.36165    1347.7809   0.50980597    152.43293    152.94273    193.54563    296.04457    68.886284            0    558.47648  -0.36623134     1449.972    14310.147 
  105000    1025.3445     105.3009   0.10000088    345.87017   -744.38652    714.41906     942.6382   -1700.3369    521.86607    698.15385    608.21506    1306.3689    1.4851215    137.17304    138.65816    198.63127      299.333    61.531413            0    559.49569  -0.36623134    1328.3451    14310.147 
  106000    1025.8299   -2371.1882   0.10000088   -1700.9403   -1415.7995   -3996.8247   -945.54652    476.25577    188.38331    728.11606    608.50298     1336.619   -10.865759    156.84513    145.97937    219.84589    293.85837    68.432431            0    582.13669  -0.36623134    841.75489    14310.147 
  107000    1048.5692     1015.039   0.10000088    191.61114    1412.1067    1441.3993   -147.58349   -198.34551   -2230.9315     743.6186    621.99154    1365.6101    9.0451161    145.43954    154.48466    205.54651    308.63864    74.948788            0    589.13394  -0.36623134    1577.4476    14310.147 
  108000    1013.1505   -902.77544   0.10000088    -2242.441   -195.50889   -270.37645   -473.02498    939.92343    120.07324    694.38438    600.98185    1295.3662   -4.5698243    146.11998    141.55015    205.54222    288.79111    58.500889            0    552.83423  -0.36623134    1106.9581    14310.147 
  109000    921.38994    904.75778   0.10000088    847.13823    1113.4921    753.64299   -836.97917     1532.652    145.63181    697.83065    546.55119    1244.3818    3.1443114    144.03015    147.17446    173.85721    314.06495    62.734023            0    550.65618  -0.36623134    1433.2037    14310.147 
  110000    914.94839   -499.33019   0.10000088    360.17331   -592.31744   -1265.8464    151.81695    1630.6196   -888.39056    825.60967    542.73018    1368.3399     17.56958    179.90799    197.47757    192.62648    367.74007    67.765546            0     628.1321  -0.36623134    1264.1302    14310.147 
  111000    1103.0993    241.67922   0.10000088    779.39341   -175.30714     120.9514   -968.84839   -1669.7042    621.05131     779.0237    654.33776    1433.3615   -4.6894732    156.36272    151.67325    169.72671    397.42688    60.196863            0    627.35045  -0.36623134    1483.7996    14310.147 
  112000    981.46075   -358.63134   0.10000088   -1820.5794    384.99423    359.69113    826.45804    937.22053   -111.03432    710.43013    582.18407    1292.6142   -3.6520417     140.1367    136.48466    195.32765    305.55661    73.061212            0    573.94547  -0.36623134    1217.7683    14310.147 
  113000     973.2886   -994.10429   0.10000088   -204.90973   -2302.7625   -474.64064   -1458.6149    406.11828   -55.429412    740.81159     577.3365    1318.1481   -7.6946604    150.66243    142.96776    200.36681      339.314    58.163011            0    597.84383  -0.36623134    1110.6797    14310.147 
  114000    1016.7491   -142.99711   0.10000088   -146.15413   -1192.2087    909.37145    208.26648    415.10498   -496.96637    689.28449    603.11644    1292.4009   0.12856476    154.30014     154.4287    178.99995    290.73284    65.122992            0    534.85578  -0.36623134    1262.5576    14310.147 
  115000     1036.868     33.60513   0.10000088    541.77894   -482.08732    41.123768   -520.59472   -568.65235    1037.0914    684.62426    615.05063    1299.6749   -6.3866922    131.18896    124.80227    177.60396    314.90447    67.313556            0    559.82199  -0.36623134    1306.6882    14310.147 
  116000     1004.668    537.92737   0.10000088    287.75957    903.14887    422.87368   -245.38147   -407.65956    96.210389      656.617    595.95018    1252.5672   -1.2179123    127.88174    126.66383     175.7579    300.26802    53.927249            0    529.95317  -0.36623134     1364.832    14310.147 
  117000    1003.9799    561.39343   0.10000088    -841.7394    386.49373     2139.426   -444.78193   -35.386462    -863.1399    684.59313    595.54203    1280.1352    9.0694303    114.24266    123.31209    188.92247    312.95207    59.406501            0    561.28104  -0.36623134    1397.2973    14310.147 
  118000    1021.6303    1887.1676   0.10000088     1768.824    1794.1618     2098.517    435.19457   -234.31166    131.67763    712.65779    606.01187    1318.6697   -2.2663336     151.9806    149.71427    197.91125     308.1043    56.927972            0    562.94352  -0.36623134    1712.5193    14310.147 
  119000    881.27291   -2230.7627   0.10000088   -2670.8714   -464.46665     -3556.95   -395.36779    692.84542   -585.58287    725.17927    522.75452    1247.9338  -0.42543809    144.05859    143.63315    229.90054    291.03776    60.607823            0    581.54612  -0.36623134    782.37628    14310.147 
  120000    1010.5716   -706.79904   0.10000088    2060.4795   -1166.1324   -3014.7443    483.12823   -290.25893    1021.8021    740.04656    599.45208    1339.4986    7.1810548    135.85956    143.04062    210.92845    322.38748    63.690013            0    597.00594  -0.36623134    1191.9905    14310.147 
  121000    1010.3362    548.01884   0.10000088    1071.3557   -120.43553     693.1364   -794.95376    483.92908    -700.1881    753.23329    599.31243    1352.5457    5.3833162    142.16992    147.55323    216.28148    330.31298    59.085591            0    605.68005  -0.36623134    1466.9166    14310.147 
  122000    955.12823   -458.36626   0.10000088   -130.22818      234.362   -1479.2326    -425.6554    605.44489    589.02413    755.62464    566.56411    1322.1887    6.1360826    144.09662     150.2327    212.21757    321.96884    71.205525            0    605.39193  -0.36623134    1226.5283    14310.147 
  123000    964.95404   -1144.5088   0.10000088   -206.49767   -1270.4724   -1956.5562   -68.808425    1003.6658    -1114.592    758.97031     572.3926    1331.3629    -6.144155    160.07106    153.92691    203.63151    341.54072    59.871177            0     605.0434  -0.36623134    1092.5053    14310.147 
  124000    926.13811   -983.10941   0.10000088   -554.69469   -1172.7818   -1221.8517    112.65641    1338.7939    150.00881    693.17771    549.36772    1242.5454   -0.7667523    143.21391    142.44716    189.84039    290.87584    70.014321            0    550.73055  -0.36623134    1037.3717    14310.147 
  125000    922.50223    319.22074   0.10000088    308.43008    913.08554    -263.8534   -554.91246    361.22089    1059.8063    688.28122    547.21098    1235.4922   -1.1502401    153.50165    152.35141    184.54984    287.56818    63.811783            0     535.9298  -0.36623134    1302.1132    14310.147 
  126000    1032.3426   -20.356133   0.10000088   -895.32634    317.47683    516.78111    325.99202    947.42612    1509.5941    728.95893    612.36621    1341.3251   -11.248984    150.25628    139.00729    204.39475    326.29446    59.262435            0    589.95164  -0.36623134    1337.0768    14310.147 
  127000    928.96913    1441.4488   0.10000088    789.29983    1940.8471    1594.1995    664.29618    1191.3527    881.23775    704.78952    551.04702    1255.8365      2.34139    166.50761      168.849    156.87286    321.55814    57.509532            0    535.94052  -0.36623134    1556.6652    14310.147 
  128000    944.77673    621.73599   0.10000088    497.63123    1194.6053     172.9714    974.16898    -716.8919    1153.3386    737.70091    560.42379    1298.1247     11.40759    142.19976    153.60735    179.35982    343.68848    61.045264            0    584.09356  -0.36623134    1427.8803    14310.147 
  129000    1078.0579   -1159.8201   0.10000088   -105.94678   -2829.8054   -543.70815   -909.21334    243.16658   -727.22472     686.4421    639.48367    1325.9258   -3.3711671    147.69474    144.32357    199.13743    291.93046    51.050642            0    542.11853  -0.36623134    1083.8727    14310.147 
  130000    965.52926   -1731.2626   0.10000088   -837.72609   -1270.9533   -3085.1085   -463.45435    565.15521   -848.81993    722.43306    572.73381    1295.1669   -7.3293535    132.19072    124.86136    225.22779    303.34218    69.001728            0     597.5717  -0.36623134    933.85442    14310.147 
  131000    1016.2139   -1349.1175   0.10000088   -2600.8873    -1171.197   -275.26809    974.41174     1120.982   -192.49857    739.60611      602.799    1342.4051   -2.1977638    149.67044    147.47268    193.39608    333.13934    65.598017            0    592.13344  -0.36623134    1060.8459    14310.147 
  132000    1005.1754    310.81586   0.10000088   -903.64167     542.4066    1293.6826   -776.66326   -2488.1209    1264.0767    762.24875    596.25116    1358.4999   -2.7860228      175.689    172.90298    206.98646     328.4543    53.905011            0    589.34577  -0.36623134    1423.3668    14310.147 
  133000    975.77865   -624.36763   0.10000088    486.90194   -1641.4038     -718.601   -1396.6916   -2220.8093    1111.8383    744.72733    578.81355    1323.5409   -4.2280574    168.62965    164.40159     217.1804    303.71252    59.432818            0    580.32574  -0.36623134    1193.2361    14310.147 
  134000    974.80507    364.00607   0.10000088    663.25028    901.98009   -473.21215   -1022.6294    1071.7037   -576.07856    661.11229    578.23604    1239.3483   -3.1278787    114.27111    111.14323    187.18097    307.42733    55.360749            0    549.96906  -0.36623134     1315.316    14310.147 
  135000    1003.3172   -1827.2708   0.10000088   -1424.9341   -2955.6825   -1101.1958    23.229409   -131.47577    498.70916    747.08332    595.14891    1342.2322   0.99035624    155.71388    156.70424    220.49697    311.83311    58.049012            0    590.37909  -0.36623134    960.88299    14310.147 
  136000    1067.8375   -180.77364   0.10000088   -155.87534   -1303.7418     917.2962   -841.52239   -2296.0351   -2729.7182    778.31584    633.42116     1411.737    5.4556027    163.56676    169.02236    216.12105    323.00275    70.169678            0    609.29348  -0.36623134    1374.0098    14310.147 
  137000    1041.0893   -434.50872   0.10000088   -1234.0488    1401.1582   -1470.6355   -1036.6675     836.9393    23.060508    670.18236    617.55459    1287.7369   -4.0893712    130.00608    125.91671    184.32356    291.74362    68.198467            0    544.26565  -0.36623134    1197.0555    14310.147 
  138000    923.68745    -1755.336   0.10000088   -1238.2568   -442.28464   -3585.4666    66.692431   -493.84894    189.41149    726.73992    547.91403     1274.654   -8.1312847    166.32863    158.19734    207.09949      301.482     59.96109            0    568.54258  -0.36623134    908.31741    14310.147 
  139000    1002.0983    1586.7777   0.10000088    1669.5033    621.71619    2469.1136    399.63927    193.12905    258.22562    689.01722    594.42587    1283.4431    11.286425    125.02139    136.30781    201.96035    288.02677     62.72229            0    552.70941  -0.36623134    1614.6017    14310.147 
  140000     924.5112    931.91589   0.10000088    670.23734    590.94514    1534.5652    434.94189    696.70389   -981.52628    713.86986    548.40266    1262.2725    4.4732435     140.9721    145.44534    206.96761    301.54006    59.916848            0    568.42452  -0.36623134    1456.7623    14310.147 
  141000     1001.322   -257.09756   0.10000088   -1428.2708    511.83763    145.14051   -1354.3378   -78.500723    130.57747    683.59017    593.96541    1277.5556  -0.94032922    124.46265    123.52232    189.30857    317.26638    53.492901            0    560.06785  -0.36623134    1223.8996    14310.147 
  142000    1001.5606   -1148.3153   0.10000088   -1251.1735   -1140.7293   -1053.0432    1398.9215   -1213.7803    857.61153    688.20322    594.10695    1282.3102   -2.4338264     139.4887    137.05487     185.9612    301.50678    63.680365            0    551.14835  -0.36623134    1042.6581    14310.147 
  143000    965.50146   -1074.8857   0.10000088    -1426.567   -1323.0427   -475.04748     972.3646    1056.6422   -162.60983    680.90187    572.71731    1253.6192   -9.1825067    144.10501    134.92251    187.77635     307.8416    50.361411            0    545.97936  -0.36623134    1029.2918    14310.147 
  144000     996.6778   -292.64103   0.10000088   -1070.4706   -129.30293    321.85049   -745.31449   -1816.6776    515.26856    765.88165    591.21054    1357.0922   -4.7196154      162.834    158.11439    196.72922    345.54756    65.490481            0    607.76726  -0.36623134    1296.0183    14310.147 
  145000    896.57478    560.93684   0.10000088   -1379.3785    1896.5981    1165.5909   -452.69201     353.6403   -68.469041    715.40866    531.83131      1247.24  -0.67524254    170.49909    169.82385    210.33957    274.44473    60.800504            0    545.58481  -0.36623134    1364.3068    14310.147 
  146000    1000.6349      346.039   0.10000088    -782.9512    761.96575    1059.1024    1414.3179   -908.78166   -778.44213    706.63712     593.5578    1300.1949    -3.601463    157.76078    154.15932    189.99944    311.16295    51.315409            0     552.4778  -0.36623134    1372.4128    14310.147 
  147000    1024.0476   -1446.0991   0.10000088   -1393.9133    155.68025   -3100.0642    -495.3321    769.89685    1606.4516    763.65633    607.44581    1371.1021    1.1365542    139.61689    140.75345    258.95864      302.425    61.519235            0    622.90288  -0.36623134     1069.303    14310.147 
  148000     1080.695   -593.25702   0.10000088   -1556.0049   -1605.9584    1382.1923    812.66018   -860.35949   -1250.6222    748.63518    641.04796    1389.6831   -2.4261815    143.21022    140.78404    240.88962    303.26149    63.700023            0    607.85113  -0.36623134    1265.8711    14310.147 
  149000    1022.3249    -368.6707   0.10000088    -1771.558    403.35854    262.18736    562.39195   -224.53219   -911.64297    701.26539    606.42393    1307.6893    7.5872905     149.6492    157.23649    196.71912    287.24453    60.065245            0    544.02889  -0.36623134    1230.7482    14310.147 
  150000    1039.5886    1262.9364   0.10000088    1025.7396    2759.5776    3.4920294    455.14719    21.912257    661.46861    761.66611    616.66439    1378.3305   -3.2066434    161.52408    158.31744    249.90799    288.63216    64.808523            0    603.34867  -0.36623134    1641.9038    14310.147 
  151000    932.86282    1245.9419   0.10000088    2022.9057    931.94345    782.97644    473.75769   -801.95704    -1449.069    763.86599    553.35669    1317.2227    7.8107721    165.66391    173.47468     211.4993    320.16544    58.726572            0    590.39131  -0.36623134    1577.2493    14310.147 
  152000    1033.4503    1158.6146   0.10000088    1566.0019    1109.4092    800.43271   -427.86795   -803.82536   -227.72536     703.0465    613.02329    1316.0698   -4.1943501    143.47909    139.28474    199.46472    305.99211    58.304936            0    563.76177  -0.36623134    1557.8713    14310.147 
  153000    973.77142    920.31062   0.10000088    899.20681   -469.72297     2331.448    410.26335   -1420.6837    236.99706     655.5363     577.6229    1233.1592   -5.1666989    131.70215    126.53546    188.47013    277.88156    62.649152            0    529.00085  -0.36623134    1425.2269    14310.147 
  154000     1056.014   -105.34573   0.10000088   -695.92291   -763.57602    1143.4617    -1747.956    1206.6222   -49.773354    676.21447    626.40768    1302.6221   -4.7043367    109.52693     104.8226    197.24552    315.18466    58.961696            0    571.39187  -0.36623134    1280.6366    14310.147 
  155000    997.63543   -1090.1685   0.10000088   -2158.2028   -858.96822   -253.33459    414.45561    1282.3448    504.90869    699.55979    591.77858    1291.3384    5.4479866    138.90173    144.34972    163.48995    324.07253    67.647597            0    555.21007  -0.36623134    1063.8215    14310.147 
  156000    932.44043    1641.4741   0.10000088    2811.0224    70.634218    2042.7656    651.44126   -156.01978    89.827325    743.07178    553.10613    1296.1779   0.70508018    150.16107    150.86616    199.88516    341.34035    50.980112            0    592.20562  -0.36623134    1638.7516    14310.147 
  157000    1070.6918     1337.529   0.10000088    2116.1298    547.88714    1348.5699    64.991119     121.5185    -2165.871     737.5923    635.11425    1372.7065   -8.3033149    159.32795    151.02463     216.7025    310.53658    59.328584            0    586.56766  -0.36623134    1651.8473    14310.147 
  158000    905.82481   -729.52706   0.10000088   -3308.1486    1477.5459   -357.97849    863.54742    1783.1313    1101.4408    749.24824    537.31825    1286.5665    6.4101534    155.49599    161.90615    218.22819    302.42713    66.686778            0     587.3421  -0.36623134    1134.3151    14310.147 
  159000    982.59077    389.89448   0.10000088    316.28038    534.76534    318.63771    471.60157   -25.212029   -1680.6035    764.00602    582.85437    1346.8604    12.914374    139.67699    152.59136    205.39212    350.18859    55.833952            0    611.41466  -0.36623134    1428.2309    14310.147 
  160000    1051.4064   -1421.2355   0.10000088   -2189.2378   -1472.3424   -602.12625     1261.058   -77.687264   -424.15436    753.36147    623.67448     1377.036  0.012639038    161.88736        161.9    220.39942    303.17498    67.887071            0    591.46147  -0.36623134    1080.4258    14310.147 
  161000    954.59386    -213.4998   0.10000088   -235.39958    1140.7791   -1545.8789    323.82881    -663.3041    114.50334    627.53423    566.24713    1193.7814    -7.812772    136.95093    129.13816    161.86096    282.27947    54.255641            0    498.39607  -0.36623134    1149.2242    14310.147 
  162000    965.43034    1110.7434   0.10000088    1637.2087    557.44439     1137.577   -214.38312   -351.69573    1137.5595    746.25728    572.67513    1318.9324    1.9013773    181.93092    183.83229    220.01819    285.75682    56.649985            0    562.42499  -0.36623134    1550.7432    14310.147 
  163000    1032.0319   -389.32757   0.10000088   -373.69642   -819.47763    25.191331   -1167.5681   -1468.9693   -94.793207    735.25884    612.18192    1347.4408   -2.2355039    132.20565    129.97015    215.86094     327.5636    61.864147            0    605.28869  -0.36623134    1266.1886    14310.147 
  164000    989.04738   -1861.0495   0.10000088   -2648.5993    84.046589   -3018.5956    994.06172     551.0826    7.0541078    693.22749    586.68431    1279.9118   -7.1091794      135.659    128.54982    209.78542    294.19726    60.694993            0    564.67767  -0.36623134    891.51299    14310.147 
  165000    1065.4043    744.06262   0.10000088    -262.9826    1556.6016    938.56887   -624.46618    2673.0694    1263.0313    728.37396    631.97777    1360.3517    5.5713683    140.47172    146.04309     193.7527    322.77288    65.805295            0    582.33088  -0.36623134    1515.6367    14310.147 
  166000    953.73617     -1052.46   0.10000088   -218.29559   -561.35666   -2377.7278   -991.15106   -79.123184    822.59959    733.78114    565.73836    1299.5195    12.901147    110.83199    123.73313    238.47085    313.13065    58.446516            0    610.04801  -0.36623134    1079.8724    14310.147 
  167000    955.38616   -578.16752   0.10000088   -1254.3883   -275.76017   -204.35409   -576.37428    111.77056    548.73703    682.74469    566.71711    1249.4618    -2.841515    164.23866    161.39714    161.42858    304.39257    55.526399            0    521.34755  -0.36623134    1128.7989    14310.147 
  168000    942.94826   -20.752688   0.10000088   -1018.7416   -623.85728    1580.3408   -695.94712    1106.3571   -730.50487    715.27113    559.33918    1274.6103   -2.7818092    156.16128    153.37947    200.67647    304.10912    57.106063            0    561.89165  -0.36623134    1270.2792    14310.147 
  169000    1114.9138   -1069.0688   0.10000088    549.18134   -2307.0405   -1449.3473   -980.28623   -121.26566    1153.2192     682.7258     661.3459    1344.0717    2.1447364    130.68171    132.82645     197.7274    294.38985    57.782107            0    549.89935  -0.36623134    1120.9583    14310.147 
  170000    1035.3173   -390.12288   0.10000088    787.62571   -2059.1799     101.1855      244.746     618.1708   -39.585955    694.03792    614.13078    1308.1687   0.15745586    164.19014    164.34759    190.49483    285.45804    53.737451            0    529.69032  -0.36623134    1226.7505    14310.147 
  171000    968.09647   -444.58612   0.10000088    -961.9485    591.25301   -963.06288    1404.2098    460.01843    377.58723    711.38185    574.25663    1285.6385   -2.1923191    156.66947    154.47715    204.66168    289.37808    62.864946            0     556.9047  -0.36623134    1192.8539    14310.147 
  172000    1031.4891    338.83652   0.10000088   -566.69117   -387.82925      1971.03   -801.18683    106.87157    279.92978    721.62482    611.85992    1333.4847  -0.20800018    147.23271     147.0247     211.7673    305.68002    57.152785            0    574.60011  -0.36623134    1404.1995    14310.147 
  173000    944.75495     2011.672   0.10000088     2484.228    1689.3936    1861.3944   -742.04039    1934.5914    626.95003    668.70383    560.41088    1229.1147    8.0698194    152.83187    160.90169    190.09915    267.10326    50.599728            0    507.80214  -0.36623134    1648.9483    14310.147 
  174000    926.95645   -1039.2173   0.10000088    558.67923   -2109.2962   -1567.0351    120.98095   -7.0717327   -364.40959    734.21623    549.85314    1284.0694    1.7409903    152.36219    154.10318     195.2912    325.26884     59.55302            0    580.11305  -0.36623134    1067.1859    14310.147 
  175000    960.58474   -413.93378   0.10000088    -365.4989     208.2798   -1084.5822   -1341.9963    108.19545    1015.6231    670.31834    569.80081    1240.1192   -1.4235195    144.57042     143.1469    188.81041     275.8514    62.509623            0    527.17144  -0.36623134    1153.7317    14310.147 
  176000    1006.4529     1653.424   0.10000088    1331.9086    3314.9065    313.45675    1995.9885    334.66456    176.94207     699.8345    597.00894    1296.8434   -8.2394274    158.45145    150.21202    183.04746    308.97455     57.60048            0    549.62249  -0.36623134    1641.9111    14310.147 
  177000    991.63275    989.52398   0.10000088    2059.0925    11.799497    897.67993    377.85826   -626.70275    414.88759    705.84422     588.2179    1294.0621  -0.94056876    142.67613    141.73556    169.28573    336.58749    58.235423            0    564.10865  -0.36623134    1500.5746    14310.147 
  178000     980.4055    1239.0622   0.10000088     1103.641    1772.9758    840.56967    104.92104   -692.03657   -404.50778    708.76511    581.55811    1290.3232   -2.6566209     143.0212    140.36458    185.22406    321.00826    62.168204            0    568.40052  -0.36623134     1548.914    14310.147 
  179000     1062.727   -98.809351   0.10000088    59.593405   -1318.3719    962.35043   -190.59867   -544.40052   -306.36818    687.60311    630.38969    1317.9928   -10.458198    165.82406    155.36586    192.22372    278.33878    61.674746            0    532.23725  -0.36623134    1297.3714    14310.147 
  180000    971.17285   -132.17991   0.10000088   -662.48666    2152.5667   -1886.6198   -76.601243   -2398.6946   -309.57051    752.31004    576.08148    1328.3915    3.6667774    155.22415    158.89093    209.32903    318.44682    65.643253            0    593.41911  -0.36623134    1300.8057    14310.147 
  181000    1012.3798   -6.8790847   0.10000088   -688.73915    158.41313    509.68877     305.9587   -1420.7298    1168.6445    678.40621    600.52464    1278.9309    1.1716559    145.81972    146.99137    192.05872    275.86221     63.49391            0    531.41483  -0.36623134    1277.4952    14310.147 
  182000    1027.8624    455.45692   0.10000088    706.05558    1009.2719   -348.95676    605.66782    1005.8719   -166.51838    675.61632    609.70868     1285.325   0.96679222     123.5576    124.52439    173.74819    316.48967     60.85406            0    551.09192  -0.36623134    1380.3783    14310.147 
  183000     1084.675   -1265.6646   0.10000088   -1298.8285   -1543.9124   -954.25295   -1166.4719    128.96591   -94.160122    724.10465    643.40883    1367.5135    2.2477313     135.1572    137.40493    210.05459    311.62973    65.015397            0    586.69972  -0.36623134    1103.3708    14310.147 
  184000    1016.1924   -1345.3098   0.10000088   -1789.5963    152.23397   -2398.5669   -1715.4938     1271.545    1068.0283    732.97063    602.78625    1335.7569   -5.8874043     148.6659     142.7785    201.08727    326.91247    62.192399            0    590.19214  -0.36623134    1054.9923    14310.147 
  185000     976.2605    684.36465   0.10000088    1545.0463    778.53065   -270.48296    224.91877   -198.30566   -1156.3144    705.76761    579.09938     1284.867    3.9830223    152.11738    156.10041    215.99438    267.05933    66.613501            0     549.6672  -0.36623134    1427.6931    14310.147 
  186000    1013.0768    58.824754   0.10000088    842.88408    564.33649   -1230.7463    306.92851    273.80284   -117.40086    717.63992     600.9381     1318.578   -0.9493735    134.04078    133.09141    185.29916    334.80602     64.44333            0    584.54851  -0.36623134    1330.8547    14310.147 
  187000    999.34499   -250.31788   0.10000088   -389.86276     54.84953   -415.94041    170.89976     842.8946    1278.6513    747.25382    592.79266    1340.0465    -1.854626    156.01706    154.16243    228.75798    303.75496    60.578441            0    593.09138  -0.36623134    1287.8054    14310.147 
  188000    1013.8533   -450.91952   0.10000088   -979.01061    163.27845    -537.0264    1123.3531   -754.65886    367.96023    656.21892    601.39871    1257.6176    12.214008    115.96331    128.17731    194.77821    268.65784     64.60556            0    528.04161  -0.36623134    1163.5113    14310.147 
  189000    889.91327    1648.3136   0.10000088    1697.9392    1065.8278    2181.1739    1284.3751    1682.4804    353.40318    692.07345    527.87982    1219.9533   -3.8286094    153.40284    149.57423    184.08233    295.86159    62.555293            0    542.49922  -0.36623134    1563.9544    14310.147 
  190000    1006.5588   -1365.3802   0.10000088   -1947.3234   -2380.8045    231.98719    1491.6245   -158.45625    480.73367    742.35115    597.07173    1339.4229   -6.8530753    162.84418     155.9911    211.33147    320.85776    54.170815            0    586.36005  -0.36623134    1054.4696    14310.147 
  191000    1020.7496    1185.8177   0.10000088    2197.3472    1033.4872    326.61858   -413.32453     177.6407   -1233.0341    708.55276    605.48949    1314.0423  -0.52036278    159.68885    159.16848    191.56993    300.93383    56.880521            0    549.38428  -0.36623134     1561.521    14310.147 
  192000    962.24564   -287.64974   0.10000088    1293.8969   -868.11464   -1288.7315   -181.46695   -758.64206   -1070.1475    708.05171    570.78603    1278.8377    14.402424    152.86097     167.2634    200.62829    278.32969    61.830332            0    540.78831  -0.36623134    1218.8056    14310.147 
  193000    995.29087   -288.07424   0.10000088   -110.57278    985.67092   -1739.3209       551.76   -331.50642    147.82654    727.27152    590.38784    1317.6594    10.605907    163.56636    174.17226    189.82033    294.24344    69.035492            0    553.09926  -0.36623134    1257.5386    14310.147 
  194000    1036.9653    768.54003   0.10000088    1209.2677    1029.2885    67.063868    2.5821374   -2013.7026    1110.2609    741.36334    615.10832    1356.4717   -5.9866872    153.32761    147.34093    223.09089    309.11687    61.814658            0    594.02241  -0.36623134    1516.8651    14310.147 
  195000    1060.2194   -443.90344   0.10000088    1326.8835   -1510.0335   -1148.5603    1040.0557   -1024.5193    -59.87407    720.64356    628.90219    1349.5458 -0.014064383    189.03572    189.02166    210.97645    266.02795    54.617511            0    531.62191  -0.36623134    1256.9036    14310.147 
  196000    921.38381    615.04481   0.10000088    814.54331    906.48219    124.10894    329.82907   -612.99561    846.77045     660.2267    546.54755    1206.7743    6.3844595    149.89036    156.27482    155.14158    294.69257    54.117735            0    503.95188  -0.36623134    1335.1334    14310.147 
  197000    961.87226    612.54362   0.10000088   -166.00189    1355.8429    647.78982   -19.107019   -375.48808   -118.56719    674.70426    570.56454    1245.2688   -4.0053789    138.72994    134.72456    198.47549    284.94343    56.560778            0     539.9797  -0.36623134    1373.1059    14310.147 
  198000    1095.6769    107.40464   0.10000088    914.37335    969.12359    -1561.283    479.27882    268.61695   -28.332611    692.99775    649.93494    1342.9327   -13.091323    151.54193    138.45061    206.12166    298.62595    49.799528            0    554.54714  -0.36623134    1365.3479    14310.147 
  199000    953.14955   -256.28109   0.10000088    749.06743   -1974.5506    456.63992    12.826023    1293.5426    1354.1523    708.32494     565.3904    1273.7153    8.9044519    147.93761    156.84206    193.42713    299.38099    58.674754            0    551.48288  -0.36623134    1220.2298    14310.147 
  200000    1039.3903   -299.53666   0.10000088   -483.74251    1114.9614   -1529.8289   -252.35643   -1408.9731   -280.35233    743.19858    616.54678    1359.7454  -0.56555014    159.24216    158.67661    225.57371    305.31693    53.631328            0    584.52197  -0.36623134    1297.2324    14310.147 
  201000     929.5744    -696.0882   0.10000088   -1085.1881   -123.16928   -879.90722   -555.86294    1308.8644    1092.0393    686.78323    551.40606    1238.1893  -0.19115738    163.38806     163.1969    179.31998    283.16227    61.104077            0    523.58633  -0.36623134    1092.9165    14310.147 
  202000     960.8629    171.84279   0.10000088    2511.4365   -1074.6501   -921.25796    2068.0239   -965.62666   -849.13851    744.79055    569.96581    1314.7564    3.7086612    156.57577    160.28443    192.51843     326.9283    65.059384            0    584.50611  -0.36623134    1350.6197    14310.147 
  203000    995.70304    810.72802   0.10000088   -531.87512    1362.9875    1601.0716    569.94996    30.819636   -1396.4559    765.67766    590.63233      1356.31     14.16002    137.80674    151.96676    228.93747    314.06725    70.706185            0    613.71091  -0.36623134     1525.508    14310.147 
  204000    987.46296    1002.5392   0.10000088    2130.2988     225.7084    651.61051    660.59549   -1413.9521    1438.4292    723.66858    585.74446     1309.413   0.76702676    159.39715    160.16417    215.42006    283.82689    64.257458            0    563.50441  -0.36623134    1518.6418    14310.147 
  205000     988.9538    1123.9974   0.10000088    715.30889    2486.0977    170.58557   -961.03552   -1105.3695   -656.60552    753.31548     586.6288    1339.9443   0.51462415    151.67776    152.19239    236.18161    307.92428    57.017205            0    601.12309  -0.36623134    1574.5212    14310.147 
  206000    998.56041    535.51525   0.10000088    1190.2456   -360.96133    777.26145     -801.622   -337.08647    1607.5196    767.41933    592.32726    1359.7466    7.5381825    181.56706    189.10525    222.98321     298.1287    57.202169            0    578.31408  -0.36623134     1471.508    14310.147 
  207000    962.29282   -914.98438   0.10000088   -243.96703    553.39874   -3054.3849   -2326.1824    -1034.764    1565.3956    693.05902    570.81401     1263.873    12.990536    151.52026     164.5108    205.15232    268.13008    55.265827            0    528.54823  -0.36623134    1072.9169    14310.147 
  208000    1114.6926    1144.4983   0.10000088    2485.5741   -533.94774    1481.8685    489.94977    264.78843   -354.09432    740.59958    661.21471    1401.8143    3.8604597    158.53804     162.3985    186.18657    326.83955    65.174962            0    578.20108  -0.36623134    1640.6697    14310.147 
  209000    1058.9127    158.43353   0.10000088    1673.4525    1035.2409   -2233.3927     113.6331    689.51659     -502.598    701.76504    628.12711    1329.8921     -1.72682    150.12349    148.39667    201.84029    292.48258    59.045491            0    553.36836  -0.36623134     1362.957    14310.147 
  210000    936.52206   -832.95595   0.10000088   -1181.8421    158.04369   -1475.0695     1255.547    204.59901    42.203843    758.45647    555.52728    1313.9837   -5.6494644    143.68749    138.03802    218.28524    338.18778    63.945425            0    620.41844  -0.36623134    1140.1468    14310.147 
  211000    1017.0343    1020.4802   0.10000088    1146.8437    1663.2945     251.3025    2071.8259    730.29307   -973.88874    737.46268    603.28564    1340.7483    2.9905197     152.2494    155.23992     193.0213    330.95518    58.246281            0    582.22276  -0.36623134    1553.7213    14310.147 
  212000    1098.5212    349.06331   0.10000088   -257.81385    -215.9265    1520.9303   -1876.4073   -1620.8781    573.15324    660.27774    651.62211    1311.8999    3.1683989    153.34415    156.51255    192.19336    250.12707    61.444773            0     503.7652  -0.36623134     1384.749    14310.147 
  213000    918.57216   -216.45124   0.10000088   -368.63101   -100.20135   -180.52137   -239.62331    379.73637    598.43909    661.80981    544.87974    1206.6895    3.8237685     139.1011    142.92487    216.78129    239.50479    62.598864            0    518.88494  -0.36623134    1161.5164    14310.147 
  214000    1022.4302   -157.85239   0.10000088   -140.12315    594.51935   -927.95338   -1440.0856    132.32844   -1111.6408    694.71429    606.48636    1301.2007    5.8065348    156.51953    162.32606    187.45317    280.74182    64.193244            0    532.38823  -0.36623134     1268.257    14310.147 
  215000    1010.7915    303.07357   0.10000088    316.55416    169.51148    423.15508   -2585.0513    -1345.678   -393.10206    736.04755     599.5825      1335.63   -4.4905804    167.54535    163.05477    213.80209    303.02122    56.169467            0    572.99277  -0.36623134    1398.8811    14310.147 
  216000    1005.2314   -273.27154   0.10000088    136.08312   -955.32846  -0.56927114    1830.5001    103.87402   -524.66645    702.75866     596.2844    1299.0431   -7.6127434    138.28036    130.66762    219.95713    292.81973    59.314177            0    572.09104  -0.36623134    1242.0116    14310.147 
  217000    926.90403   -873.21707   0.10000088   -1743.6623   -1604.4337    728.44479   -1083.8243   -404.97017   -716.90962    745.63899    549.82205     1295.461    1.4134878    158.54551      159.959    192.83649    332.80995    60.033556            0    585.67999  -0.36623134    1113.2217    14310.147 
  218000    1001.1273    1386.1931   0.10000088    968.03303    1555.1981    1635.3482   -570.53205    649.83071   -623.29328    659.79136    593.84988    1253.6412    6.7727407    147.97091    154.74365    197.43148    236.26055    71.355683            0    505.04771  -0.36623134    1542.9381    14310.147 
  219000    1004.3904     125.4727   0.10000088    77.414473   -211.51741    510.52103    1054.2117   -694.47193     1255.373    737.03485    595.78548    1332.8203    1.7803149    160.25483    162.03515     177.2079    338.77792    59.013872            0     574.9997  -0.36623134    1359.0063    14310.147 
  220000    976.83554    2522.3552   0.10000088    1514.8525    4041.0038    2011.2093   -24.490859   -30.746679   -1112.9942    743.93416    579.44048    1323.3746   -4.7341282    159.14699    154.41286     208.0403    331.31806    50.162934            0     589.5213  -0.36623134    1849.7872    14310.147 
  221000     1012.608   -577.13868   0.10000088   -2157.2577    1736.6787    -1310.837   -1198.1105    721.29019   -1009.3091    702.38941    600.66006    1303.0495   -2.0776141    167.85031     165.7727    179.71705    300.41347    56.486192            0    536.61671  -0.36623134    1182.6013    14310.147 
  222000     1012.489    -417.3479   0.10000088   -1482.4477    72.640232     157.7638   -1444.4196   -770.12932   -767.03137    715.36907    600.58946    1315.9585   -3.2453293    145.38712    142.14179    202.54147    308.12639    62.559416            0    573.22728  -0.36623134    1228.8585    14310.147 
  223000    992.13891    909.07907   0.10000088    904.44105    693.91181    1128.8843    191.81787   -473.85998    431.77468    684.57232    588.51815    1273.0905     14.20433    168.16018    182.36451    154.90379    288.77824    58.525769            0     502.2078  -0.36623134    1462.8142    14310.147 
  224000    1002.1916    848.25804   0.10000088    142.36254    2186.4973    215.91428    -1541.382   -1465.0848     200.9679     730.7824    594.48119    1325.2636    4.2427933    148.38557    152.62836    193.19405    333.48718    51.472809            0    578.15404  -0.36623134     1502.294    14310.147 
  225000    946.16736   -380.94959   0.10000088    782.41346   -47.434485   -1877.8277    445.81021   -936.00467    730.57869     716.0722    561.24869    1277.3209    1.0775782     148.2509    149.32848     197.1058    310.74909     58.88883            0    566.74372  -0.36623134    1197.8172    14310.147 
  226000    1108.4496    381.40275   0.10000088    348.64741    587.26639    208.29447     1191.987    -518.0861   -394.21012    737.24694    657.51145    1394.7584    3.2524492    157.62807    160.88052    197.17162    318.16849     61.02631            0    576.36642  -0.36623134    1474.3567    14310.147 
  227000    1083.0415    729.09205   0.10000088    1375.5469    1195.1327   -383.40347     375.3643    927.24697    177.22988    654.05895    642.43983    1296.4988   -10.109332     136.2865    126.17717    179.14509    298.98058    49.756113            0    527.88178  -0.36623134    1448.6594    14310.147 
  228000     976.9234    -275.1004   0.10000088    611.36094   -642.22326   -794.43888    685.68088    947.29598   -719.94956    720.59884    579.49259    1300.0914   -5.7144129    147.35857    141.64416    214.92107    308.04334    55.990279            0    578.95468  -0.36623134    1242.6783    14310.147 
  229000     1038.781    -436.7938   0.10000088   -8.4473014   -2023.2807    721.34664     1224.772   -275.23899   -2912.9308    756.41893    616.18534    1372.6043   0.56439095    161.50681    162.07121     192.2914    343.73693     58.31939            0    594.34772  -0.36623134    1281.4459    14310.147 
  230000    1114.4126   -207.19551   0.10000088   -117.76275     664.9374   -1168.7612    1340.2244    1234.5161   -803.26585    757.65105    661.04859    1418.6996 -0.017938605    145.95706    145.93912    228.35348     316.7117    66.646741            0    611.71193  -0.36623134    1375.4582    14310.147 
  231000    998.29809   -1082.8272   0.10000088   -401.55115   -3666.5829    819.65256    819.13837   -830.87173    1331.7444    746.69498    592.17166    1338.8666    5.3468759    164.61706    169.96394     192.9368    324.07913    59.715106            0    576.73104  -0.36623134    1112.8819    14310.147 
  232000    1028.4487   -101.34816   0.10000088   -826.30536    963.50522   -441.24434   -1030.4131    584.11881   -1832.9026    747.95191    610.05641    1358.0083    1.7015439    153.62533    155.32688    224.16086    311.85125    56.612921            0    592.62504  -0.36623134    1336.8571    14310.147 
  233000    1054.5661    112.89784   0.10000088   -1297.6473    1819.8643   -183.52347   -73.684083    1063.0013    1995.6761    718.63752    625.54878    1344.1863    2.4195801    161.72257    164.14215    180.73836    323.63819    50.118822            0    554.49537  -0.36623134    1367.7479    14310.147 
  234000    906.49221    1324.3311   0.10000088    1608.3273    1575.8322    788.83378   -301.94341   -1157.7334   -1121.6945    748.50512    537.71414    1286.2193    5.3311591    156.88337    162.21453    233.34321    299.20477    53.742605            0    586.29059  -0.36623134    1562.6056    14310.147 
  235000    958.02783   -28.927531   0.10000088    564.22393   -667.43879    16.432265    1258.7721    518.72309    421.80308    736.10414     568.2841    1304.3882  -0.40654725    140.53982    140.13327    214.88547    321.66703    59.418361            0    595.97086  -0.36623134    1298.3511    14310.147 
  236000    972.08701   -1044.1586   0.10000088    20.016229   -1015.4426   -2137.0494    524.36804    739.42049   -776.10713    795.60454    576.62374    1372.2283  -0.58600377    142.41305    141.82705    245.27361     344.4797    64.024178            0    653.77749  -0.36623134    1154.3136    14310.147 
  237000    995.41194    279.86966   0.10000088    1150.3529    75.037606   -385.78154    699.54234   -1224.1889    702.31668    682.27032    590.45965      1272.73   -4.8176412    170.62832    165.81068    182.71424    262.05123    71.694174            0    516.45964  -0.36623134    1331.1384    14310.147 
  238000    907.13141   -25.619336   0.10000088   -587.81641   -1358.9777    1869.9361     -1734.41    705.31674   -928.88808     671.5178     538.0933    1209.6111   -7.0007097    158.08466    151.08395    184.27727     280.2648    55.891772            0    520.43384  -0.36623134    1204.2644    14310.147 
  239000     1007.628    74.662819   0.10000088    1774.2356   -171.76066   -1378.4864    185.65093     2961.504    1308.0108    716.55249    597.70597    1314.2585   -3.1848868    139.11459     135.9297    220.52926    300.66533    59.428191            0    580.62279  -0.36623134    1329.8405    14310.147 
  240000    957.24437    845.13791   0.10000088   -677.88403     988.5922    2224.7056    516.45525    1058.6355    -1490.291    715.90563    567.81936     1283.725    5.5095813    157.95544    163.46502    218.80213    280.90201    52.736463            0     552.4406  -0.36623134    1460.1043    14310.147 
  241000    1062.3924   -919.38286   0.10000088    337.66594   -1585.2439   -1510.5706    713.04898   -620.78461    1287.3181    714.10807    630.19119    1344.2993   -2.6744133    170.93789    168.26348    213.28417    269.44344    63.116981            0    545.84459  -0.36623134    1152.4252    14310.147 
  242000     1039.142   -546.37266   0.10000088   -446.85258   -398.32911   -793.93628    78.585888    1075.6347    889.29583    707.12191    616.39951    1323.5214   -1.0091059    153.67521     152.6661    210.81113    277.70393    65.940738            0     554.4558  -0.36623134    1209.4941    14310.147 
  243000     939.1792    829.48941   0.10000088    1731.1475    1713.1738   -955.85303    257.96182   -906.83767   -430.50639    692.65938    557.10344    1249.7628    8.3298056    133.64827    141.97808    191.95792    300.83775     57.88563            0     550.6813  -0.36623134    1422.8763    14310.147 
  244000    1062.0253    717.43007   0.10000088    1387.4963    1073.5562   -308.76229    424.39167   -747.90049    858.96602     741.8405    629.97341    1371.8139    4.3291439    168.93581    173.26496    223.67406    284.54016    60.361331            0    568.57555  -0.36623134    1521.5407    14310.147 
[...]
 1941000    360.42595   -93.066112  0.011942002   -68.691459   -173.22181   -37.285064     -105.546    1.2203698   -41.013696    361.58582     213.7979    575.38372   -2.7664749    134.86621    132.09974    73.383114    115.90877    40.194197            0    229.48608  -0.04373497    412.73965    119831.43 
 1942000    391.26403   -1.6253362  0.011942002   -19.554911   -81.394365    96.073268   -2.5127551   -73.122742   -2.5404857    361.27595    232.09047    593.36642    -4.503205    144.49452    139.99131    76.960258    105.63766     38.68672            0    221.28464  -0.04373497    590.52595    119831.43 
 1943000    342.41942   -39.252674  0.011942002    95.675247   -53.551385   -159.88188    24.182114   -4.9937538   -55.375415    379.61109    203.11676    582.72785    2.2469589    141.92159    144.16855     84.24746    111.64963    39.545453            0    235.44254  -0.04373497    514.12915    119831.43 
 1944000    383.39956    63.300313  0.011942002    37.268576     78.63233    74.000031     -56.1857   -9.8451688    177.17756    378.27902    227.42541    605.70443   -4.2791244    146.14527    141.86614    79.390492    119.22372    37.798671            0    236.41288  -0.04373497    716.32923    119831.43 
 1945000    357.42023    28.225083  0.011942002   -81.418568   -1.3559661    167.44978    62.055392    57.490766    47.298276    398.61459    212.01496    610.62955   -4.4287454    148.02009    143.59134    73.690411    143.32185    38.010987            0    255.02325  -0.04373497    659.95623    119831.43 
 1946000    347.61902   -79.026212  0.011942002    -157.1779    7.1141691   -87.014905    72.708906    4.2987158   -72.169975    406.70594    206.20107    612.90701   -4.2135422    145.77029    141.55675    76.928576    150.68023    37.540391            0    265.14919  -0.04373497    474.79934    119831.43 
 1947000     414.2361    32.139476  0.011942002    90.904211    24.193876    -18.67966    93.159158   -61.071433   -38.447128    398.66933    245.71707     644.3864    2.9353435    136.61453    139.54987    79.741355     134.3489    45.029198            0    259.11946  -0.04373497    700.55394    119831.43 
 1948000    354.60934    2.4222371  0.011942002   -26.624045   -21.186398    55.077154    26.808867   -28.542766    44.794344    375.07811    210.34759    585.42571   -2.3449526    140.88129    138.53633    75.125253    119.98799    41.428534            0    236.54178  -0.04373497    589.65885    119831.43 
 1949000     374.0312    114.73478  0.011942002    191.28798    40.154544    112.76182    30.306351   -11.454602   -138.45479    372.98947    221.86827    594.85774    -5.079312    142.64659    137.56728    60.260764    133.15956    42.001863            0    235.42219  -0.04373497    795.37037    119831.43 
 1950000    396.71951   -67.360291  0.011942002    14.580555     25.30689   -241.96832   -14.125167   -59.929764   -8.7157316    387.46107    235.32655    622.78763 -0.058219806     142.3529    142.29468    87.417765    114.87892    42.869704            0    245.16639  -0.04373497    505.06753    119831.43 
 1951000    428.77013   -75.848353  0.011942002   -127.13362   -21.591041   -78.820395    97.288261    41.555767   -13.044387    379.94223    254.33838    634.28061    4.4312972    138.03788    142.46918     81.47823    115.81412    40.180694            0    237.47305  -0.04373497    501.72662    119831.43 
 1952000    391.20893    35.210261  0.011942002   -33.709191    119.46884    19.871131    69.433769    4.4741086   -34.152488    372.25674    232.05778    604.31452   -5.9164837    139.44658     133.5301    73.561105    121.68115    43.484382            0    238.72664  -0.04373497    665.84863    119831.43 
 1953000    376.45133   -67.654264  0.011942002   -52.904097   -78.572401   -71.486293   -7.9901636   -44.912022   -63.651235     382.9174    223.30385    606.22125   -4.1327164    146.61103    142.47831     78.01246    118.10889     44.31774            0    240.43909  -0.04373497    487.98741    119831.43 
 1954000    376.54983    3.8751025  0.011942002   -99.212737    50.176972    60.661072   -38.458092   -33.734746   -97.436737     371.1572    223.36228    594.51948   -5.4059442    144.02999    138.62405    70.525041    127.58901    34.419103            0    232.53315  -0.04373497    601.29169    119831.43 
 1955000    380.20624   -110.07416  0.011942002   -141.72653   -203.21446    14.718501     28.09706    119.32809    74.458288    371.96307    225.53119    597.49427   -5.2265947    150.51292    145.28633    78.155422    112.77819    35.743134            0    226.67675  -0.04373497    405.12662    119831.43 
 1956000    396.10263    2.0786725  0.011942002    91.909604    23.349232   -109.02282    122.37818    -61.77821     95.34857     404.5938    234.96064    639.55444   -1.8398076    153.66917    151.82936     68.66583    145.35701    38.741602            0    252.76444  -0.04373497    643.18716    119831.43 
 1957000    359.71875    62.880217  0.011942002    49.085199    105.24242     34.31303    73.002593   -18.958108    7.8344102    393.46338     213.3784    606.84178   0.45603686     154.5209    154.97694    75.697277      122.253    40.536165            0    238.48644  -0.04373497    716.73241    119831.43 
 1958000    370.90498    34.861808  0.011942002   -52.796774   -51.294371    208.67657   -115.30522   -2.4610266    32.981466     394.0393    220.01386    614.05316    -4.296016    147.12456    142.82854    88.767587    119.91749    42.525684            0    251.21076  -0.04373497     674.9783    119831.43 
 1959000    387.80816    106.68407  0.011942002    119.27789    120.37864    80.395674    107.88084   -22.994303   -85.436824    387.07257    230.04051    617.11308   -2.0654944     136.5233     134.4578    83.459195    130.13827      39.0173            0    252.61477  -0.04373497    803.55614    119831.43 
 1960000    329.05183   -161.02413  0.011942002   -226.87053   -119.15384   -137.04802   -71.826588   -60.342481    110.66227    378.76766    195.18736    573.95502   -4.3911963    147.32219    142.93099    78.014475    116.74477    41.077434            0    235.83667  -0.04373497    292.54627    119831.43 
 1961000    360.07404   -20.311906  0.011942002   -167.46691    58.668946    47.862246   -75.632031   -23.587706    12.269253    362.32834    213.58915    575.91749   -2.0575124    144.68705    142.62954    65.844606     113.8824    39.971796            0     219.6988  -0.04373497    540.42003    119831.43 
 1962000    340.46929   -28.813132  0.011942002   -13.357687     5.287857   -78.369565   -112.42912   -63.676593     11.00072    364.72561    201.95998    566.68559   -4.5114758    140.48257    135.97109     74.44996    116.77346    37.531098            0    228.75451  -0.04373497    516.33123    119831.43 
 1963000    376.71983    136.33438  0.011942002    204.87378    107.12511    97.004232    15.459335    54.183098    26.144262    379.51815    223.46312    602.98127    2.6417381    142.84177     145.4835    72.661781     124.1787    37.194161            0    234.03464  -0.04373497    841.24175    119831.43 
 1964000      400.738   0.97318682  0.011942002    33.632664    88.704603   -119.41771   -11.114268   -53.666142   -205.93032    389.54217    237.71025    627.25242   -5.3033686    148.88716    143.58379    73.508929    132.87412    39.575328            0    245.95838  -0.04373497    628.95318    119831.43 
 1965000    355.40531   -17.600982  0.011942002    8.7650119    5.2147226   -66.782681   -17.520282    9.2445814    49.454304    366.97841    210.81975    577.79816   -3.0567182    148.07096    145.01424    73.088673    105.35869    43.516801            0    221.96417  -0.04373497    547.03836    119831.43 
 1966000    346.11353   -33.709659  0.011942002   -94.719632   -35.419967    29.010623   -46.554023    -29.81204   -73.467052    377.00106    205.30804    582.30909   -4.3951767    146.11441    141.71923    79.510182    117.30132    38.470325            0    235.28183  -0.04373497    523.39747    119831.43 
 1967000    382.51938    37.892151  0.011942002    18.202733   -10.544463    106.01818    169.47016     68.61712    17.172115    379.83786     226.9033    606.74116   -4.6834305    147.06286    142.37943    76.147133    120.18857    41.122726            0    237.45843  -0.04373497    672.96218    119831.43 
 1968000     366.0655   -34.552833  0.011942002   -148.43606    98.897234   -54.119674    93.559923    50.864649   -70.629571    402.36798    217.14317    619.51116  -0.69981553     153.8927    153.19288    72.997405    135.32386    40.853836            0     249.1751  -0.04373497    559.12598    119831.43 
 1969000    398.80654    77.860896  0.011942002    5.8141293    202.17342    25.595134    60.457676    197.64526   -27.435691    357.31944    236.56454    593.88398   -3.2854659    153.43884    150.15337    66.470572    104.98018    35.715311            0    207.16606  -0.04373497    729.95512    119831.43 
 1970000    384.62283    25.270454  0.011942002   -12.442102    80.258018    7.9954458   -111.21365    65.531146   -29.075743    373.05309    228.15103    601.20412  -0.49439936    142.47548    141.98108     75.14009    118.22389    37.708031            0    231.07201  -0.04373497    645.36723    119831.43 
 1971000     375.8216    9.7027574  0.011942002    26.031429    12.506633     -9.42979    108.75998    45.492941   -75.596359    361.68677    222.93031    584.61708   -3.2819139    141.19554    137.91363    68.559147    114.10382    41.110171            0    223.77314  -0.04373497     601.5738    119831.43 
 1972000     368.9835   -108.59723  0.011942002   -102.91088   -118.05144   -104.82939   -35.467735   -4.8460017    65.570096    380.23939    218.87408    599.11346    1.7634759    142.98429    144.74777    84.375195    106.46368    44.652744            0    235.49162  -0.04373497    409.32693    119831.43 
 1973000    363.24843    60.890363  0.011942002    53.802743   -82.921994    211.79034   -66.112422    129.35893     9.883842    369.61644    215.47214    585.08858   0.97428092    143.54643    144.52071    81.536164    109.33472    34.224846            0    225.09573  -0.04373497    691.50171    119831.43 
 1974000    399.72724    38.526913  0.011942002   -36.186611    54.054343    97.713006    -2.242692    -46.63512   -26.879659    378.60308    237.11068    615.71377   -1.1633941     142.2134    141.05001     74.65606    118.05711    44.839901            0    237.55307  -0.04373497    683.04411    119831.43 
 1975000     373.1935   -25.697786  0.011942002    42.100454   -93.264585   -25.929228     51.29179   -11.958727      50.5886    379.41273    221.37137     600.7841   -1.3946489    141.10975     139.7151    82.052947    109.83284    47.811846            0    239.69764  -0.04373497    555.87418    119831.43 
 1976000    372.24897   -3.8189333  0.011942002   -121.31962    52.635444    57.227375    105.34018   -68.518315   -55.082776    379.80096    220.81109    600.61205    0.1736025    147.81024    147.98384    75.951008    119.56694    36.299161            0    231.81711  -0.04373497    593.93801    119831.43 
 1977000    353.12493    3.0420258  0.011942002    6.0258708    58.877097    -55.77689    99.005594   -33.897741   -170.18842    374.50142    209.46707    583.96849   -4.6168157    151.40866    146.79185    77.001355    117.06646    33.641759            0    227.70957  -0.04373497    589.28479    119831.43 
 1978000    403.25293    32.169002  0.011942002    2.9581167    53.202687    40.346201    60.361889    93.046541    22.155594    361.07884    239.20206     600.2809   0.51264863    143.17187    143.68451    65.394972    111.45524    40.544111            0    217.39433  -0.04373497    656.50004    119831.43 
 1979000    385.79058   -9.4069227  0.011942002    15.667402   -91.857734    47.969564    33.936733    63.601175    58.258197    365.67614    228.84372    594.51986  -0.72497771    139.84164    139.11666    79.310019     109.9822    37.267269            0    226.55949  -0.04373497    578.08015    119831.43 
 1980000    377.83939    6.0781077  0.011942002    146.01566   -75.419563   -52.361773   -53.143824     125.3931    19.717394    374.45421    224.12722    598.58143  -0.80521524    141.51085    140.70564    73.730583    111.04607    48.971913            0    233.74857  -0.04373497    609.20364    119831.43 
 1981000    392.18484    10.204859  0.011942002   -26.360599     39.87242    17.102757   -5.9573506    54.504267    104.92507    372.76669    232.63667    605.40336    0.7208103     138.7096    139.43041    69.606405    117.27614    46.453734            0    233.33628  -0.04373497    623.23756    119831.43 
 1982000    368.20753    90.376848  0.011942002    160.97065    114.43786   -4.2779668    19.340265   -29.111569   -4.2918151    403.01911    218.41379    621.43289    2.4023545    147.51598    149.91833    78.591731     123.1436    51.365439            0    253.10077  -0.04373497    779.37715    119831.43 
 1983000    372.23361    -109.0554  0.011942002    -2.151461   -189.91204    -135.1027    -24.78047   -183.25206     32.70912    387.72351    220.80198    608.52549    2.0539206    136.44295    138.49687    89.846922    110.87587    48.503852            0    249.22664  -0.04373497    417.93825    119831.43 
 1984000    394.08702    -14.05348  0.011942002    9.7339456   -13.168613   -38.725773      5.37829   -60.081296    75.872435    367.46014    233.76501    601.22515   -2.9336171    137.31826    134.38464    66.099935    118.87683    48.098742            0    233.07551  -0.04373497    576.66503    119831.43 
 1985000    359.44931   -40.390717  0.011942002   -183.61052   -29.763713     92.20208   -29.003897   -75.794539    37.561726    360.96498    213.21857    574.18355  -0.30493884    136.55604     136.2511    68.183968    108.24391    48.286005            0    224.71388  -0.04373497    503.59599    119831.43 
 1986000    365.88866    19.637394  0.011942002   -49.060457    167.14004   -59.167399    67.543222    38.118299    95.403317    393.46397    217.03827    610.50224    -2.311314    143.64052    141.32921    71.635793    138.51053    41.988433            0    252.13476  -0.04373497    644.82091    119831.43 
 1987000    380.97277     80.85931  0.011942002    88.521518    151.28081    2.7755998    108.17546   -40.883664    57.487626     342.7068    225.98589    568.69268   -5.5756857    136.25722    130.68153    64.501433     107.6382    39.885628            0    212.02527  -0.04373497    710.00391    119831.43 
 1988000    396.10652    116.82691  0.011942002    161.55845    60.169541    128.75274   -12.646886   -98.632794    96.558973     369.7144    234.96294    604.67735     2.303853    131.92339    134.22724    58.405741    140.83775    36.243675            0    235.48716  -0.04373497    808.84622    119831.43 
 1989000    362.58691     11.03467  0.011942002   -78.885696    28.298427    83.691279   -92.163631   -28.167965   -130.57888    378.37367    215.07974     593.4534   -3.3531481    139.40237    136.04922    92.560681    109.85667    39.907097            0    242.32445  -0.04373497     612.7378    119831.43 
 1990000    371.57815   -6.0748909  0.011942002   -39.532682    189.11547   -167.80746    45.423636   -49.425076    62.344604    375.77882    220.41317    596.19199   -6.3202303    143.45938    137.13915    81.011615    117.93513     39.69292            0    238.63966  -0.04373497     585.5754    119831.43 
 1991000    375.23322   -46.658423  0.011942002   -102.10429    12.590713   -50.461693    41.621752   -41.327754    96.132846    380.34316    222.58129    602.92445   0.31135045    139.51896    139.83032     88.93139    108.85568    42.725774            0    240.51285  -0.04373497    521.38333    119831.43 
 1992000    385.10405    54.523481  0.011942002    98.711264     103.5397    -38.68052    11.170299    24.063348   -42.705968    392.64673    228.43648    621.08321     -1.93394    142.71859    140.78465    74.909497    137.60223     39.35036            0    251.86208  -0.04373497    716.36946    119831.43 
 1993000    354.11473   -152.59837  0.011942002   -217.54002   -219.77373    -20.48136   -24.681005    42.511909    99.519201    395.14719     210.0542    605.20139   -3.5542231    146.86599    143.31177    83.600845    129.58852     38.64606            0    251.83543  -0.04373497    338.51766    119831.43 
 1994000    369.12102     24.76548  0.011942002    101.73585    54.694475   -82.133882   -67.605639    1.0427407   -16.632262    374.68892    218.95565    593.64457   0.70410922    141.09291    141.79701    78.355754    119.24129    35.294858            0    232.89191  -0.04373497    636.92518    119831.43 
 1995000    373.17659    21.026104  0.011942002   -1.8832396    69.131115    -4.169564    70.879626    61.219136    122.93473    357.68066    221.36134      579.042   -5.1032656    138.83286    133.72959    70.261746    113.74052    39.948803            0    223.95107  -0.04373497    615.78761    119831.43 
 1996000    389.79913    105.04051  0.011942002    48.326476    183.60613    83.188935    117.08722    25.189813   -33.268147    374.64531    231.22151    605.86682   -2.4667386    140.57411    138.10738    81.255916    112.01464    43.267379            0    236.53793  -0.04373497    789.43757    119831.43 
 1997000    372.17455    50.893371  0.011942002    83.687934    145.76776   -76.775576    38.857091    68.095781    155.40707    350.35282    220.76695    571.11977   -4.0889243    136.13655    132.04763    69.235585    111.81428    37.255333            0    218.30519  -0.04373497    660.06197    119831.43 
 1998000    394.68858   -29.527349  0.011942002   -45.604916   -73.117124    30.139992   -1.4789713   -103.08868    23.588082    380.66998    234.12185    614.79183   -5.6207633    131.29683    125.67607    81.553259    127.22484    46.215807            0    254.99391  -0.04373497    563.18928    119831.43 
 1999000    399.90419    1.0383615  0.011942002    -46.21424    128.44708   -79.117755   -102.24452   -52.985912    83.258316    406.81225    237.21565     644.0279   -2.8333253    145.28024    142.44692    82.640151    133.91026    47.814927            0    264.36534  -0.04373497    645.84256    119831.43 
 2000000    399.57183    73.585224  0.011942002    72.394426     23.70001    124.66124    5.7638984    52.925547   -49.579886    373.55522     237.0185    610.57372  -0.57139651    145.18584    144.61444    59.352739    129.38604    40.202004            0    228.94078  -0.04373497    739.17262    119831.43 
Loop time of 11.8627 on 112 procs for 250000 steps with 200 atoms

Performance: 1820.836 ns/day, 0.013 hours/ns, 21074.490 timesteps/s
99.9% CPU use with 112 MPI tasks x no OpenMP threads

MPI task timing breakdown:
Section |  min time  |  avg time  |  max time  |%varavg| %total
---------------------------------------------------------------
Pair    | 0.011158   | 0.091666   | 0.7078     |  38.4 |  0.77
Bond    | 0.016006   | 0.26475    | 1.722      |  57.7 |  2.23
Neigh   | 0.30012    | 0.31054    | 0.32268    |   0.8 |  2.62
Comm    | 3.9255     | 5.558      | 7.3272     |  32.6 | 46.85
Output  | 0.027303   | 0.027352   | 0.027676   |   0.0 |  0.23
Modify  | 0.083335   | 0.11907    | 0.30943    |  10.9 |  1.00
Other   |            | 5.491      |            |       | 46.29

Nlocal:        1.78571 ave          26 max           0 min
Histogram: 91 9 4 1 1 3 2 0 0 1
Nghost:        101.179 ave         152 max          41 min
Histogram: 5 5 11 12 16 11 21 13 9 9
Neighs:        28.4732 ave         813 max           0 min
Histogram: 102 3 4 2 0 0 0 0 0 1

Total # of neighbors = 3189
Ave neighs/atom = 15.945000
Ave special neighs/atom = 10.000000
Neighbor list builds = 6755
Dangerous builds = 0
System init for write_restart ...
Total wall time: 0:02:23
