ITEM: TIMESTEP
0
ITEM: NUMBER OF ATOMS
651
ITEM: BOX BOUNDS pp pp pp
0.0000000000000000e+00 2.3503699999999998e+01
0.0000000000000000e+00 2.3503699999999998e+01
0.0000000000000000e+00 2.3503699999999998e+01
ITEM: ATOMS id mol type xu yu zu 
1 0 1 1.24802 40.0127 29.6037 
2 0 2 1.03726 38.8439 28.6427 
3 0 2 2.17485 38.7351 27.6421 
4 0 2 2.25563 37.387 26.9112 
5 0 2 3.40645 37.4006 25.8963 
6 0 2 4.0049 36.0381 25.4409 
7 0 2 4.22692 36.0498 23.9253 
8 0 2 4.18226 34.9708 22.871 
9 0 3 4.07616 35.1716 21.3575 
10 0 2 3.40494 36.2759 20.5352 
11 0 1 5.27514 34.6082 20.6048 
12 0 1 2.98908 47.5684 19.4947 
13 0 2 3.27186 46.2103 18.8681 
14 0 2 2.72643 45.0565 19.7152 
15 0 2 3.14237 43.7691 19.006 
16 0 2 2.91338 42.499 19.8163 
17 0 2 3.65313 41.3298 19.1275 
18 0 2 3.42585 40.0507 19.9155 
19 0 2 4.09082 38.7113 19.5255 
20 0 3 3.84574 37.7234 20.6637 
21 0 2 4.85531 37.9323 21.7267 
22 0 1 6.63833 47.8956 21.1502 
23 0 2 6.59011 46.8425 20.0406 
24 0 2 5.93797 45.8535 20.991 
25 0 2 6.16497 44.4401 20.5577 
26 0 2 5.48986 43.7036 21.6937 
27 0 2 5.82192 42.2644 21.4037 
28 0 2 5.05644 41.5826 22.542 
29 0 2 5.31124 40.2058 22.0552 
30 0 3 4.7358 39.0186 22.7729 
31 0 2 5.56648 38.6667 24.0227 
32 0 1 15.9868 40.1076 20.4594 
33 0 2 14.7392 39.9458 19.6551 
34 0 2 13.1699 39.7871 19.9277 
35 0 2 13.2748 40.0873 18.4388 
36 0 2 9.98961 37.8092 23.0683 
37 0 2 10.1922 38.7623 21.6723 
38 0 2 8.94686 38.5528 22.5535 
39 0 2 7.55531 38.8613 22.7969 
40 0 3 6.94137 37.9432 23.8956 
41 0 2 6.85254 36.5186 23.3455 
42 0 1 17.028 34.0804 23.4047 
43 0 2 15.6249 33.5842 23.5525 
44 0 2 14.6022 34.3179 24.3283 
45 0 2 13.4398 34.1888 23.3682 
46 0 2 12.3076 34.9577 23.9826 
47 0 2 11.1886 34.787 22.9813 
48 0 2 9.99869 35.2014 23.8021 
49 0 2 8.85878 35.2753 22.777 
50 0 3 7.67546 35.3334 23.7471 
51 0 2 7.04902 33.9726 23.3721 
52 0 1 16.2533 29.9575 27.9926 
53 0 2 15.5907 30.9989 27.164 
54 0 2 14.1226 30.6138 26.9471 
55 0 2 13.5663 31.307 25.7159 
56 0 2 12.1662 31.8386 25.84 
57 0 2 11.3412 31.8097 24.5753 
58 0 2 9.94422 32.285 24.9254 
59 0 2 9.10228 32.3818 23.6582 
60 0 3 7.69106 32.7871 24.0722 
61 0 2 6.91571 31.4935 24.0303 
62 0 1 -3.69575 30.5015 21.0317 
63 0 2 -2.60011 31.1119 21.8775 
64 0 2 -1.22162 30.5475 21.559 
65 0 2 -0.13014 31.5974 21.7812 
66 0 2 1.24213 30.9598 21.9075 
67 0 2 2.37598 31.9622 22.1671 
68 0 2 3.438 31.2744 23.0237 
69 0 2 4.59269 32.0855 23.5324 
70 0 3 5.50874 31.4236 24.5602 
71 0 2 5.34851 32.0017 25.9606 
72 0 1 2.09205 29.6392 36.0707 
73 0 2 2.64374 30.4881 34.9685 
74 0 2 2.53312 30.1609 33.5057 
75 0 2 3.98892 30.502 33.0245 
76 0 2 4.3435 30.0749 31.6015 
77 0 2 5.57553 30.5639 30.8328 
78 0 2 5.00226 30.581 29.4182 
79 0 2 5.16069 31.7253 28.4429 
80 0 3 5.84102 31.2078 27.1637 
81 0 2 7.34685 31.0412 27.3706 
82 0 1 7.03512 41.8615 28.5905 
83 0 2 7.05165 40.8721 27.4144 
84 0 2 6.84811 39.4931 27.9955 
85 0 2 7.0189 38.2634 27.1401 
86 0 2 6.96894 37.0672 28.0921 
87 0 2 7.29856 35.7967 27.3545 
88 0 2 7.3701 34.6017 28.2978 
89 0 2 7.79272 33.4946 27.3419 
90 0 3 8.07142 32.2028 28.0758 
91 0 2 9.53608 31.8835 28.1819 
92 0 1 11.3286 41.9747 28.2384 
93 0 2 9.98648 41.3721 28.4681 
94 0 2 9.85223 40.2169 29.426 
95 0 2 9.73019 38.9806 28.5604 
96 0 2 9.93577 37.6238 29.1811 
97 0 2 10.3965 36.6671 28.067 
98 0 2 10.6977 35.3228 28.6813 
99 0 2 10.7298 34.1413 27.7512 
100 0 3 10.5978 32.8826 28.5925 
101 0 2 11.9734 32.1802 28.7843 
102 0 1 9.14544 25.7137 37.0317 
103 0 2 8.59643 26.5158 35.9156 
104 0 2 9.58591 26.9878 34.8443 
105 0 2 9.16735 28.2236 34.0688 
106 0 2 9.15219 28.203 32.551 
107 0 2 8.96218 29.6617 32.0669 
108 0 2 9.7986 29.9944 30.8847 
109 0 2 10.7732 31.2021 30.8382 
110 0 3 12.0335 31.1137 29.855 
111 0 2 13.3312 30.0855 30.2058 
112 0 1 11.68 24.4781 38.5981 
113 0 2 11.8869 25.7632 37.7979 
114 0 2 12.6093 25.5246 36.4855 
115 0 2 12.844 26.6942 35.5324 
116 0 2 14.0802 26.4953 34.6275 
117 0 2 14.3251 27.6649 33.6337 
118 0 2 13.6709 27.6915 32.2634 
119 0 2 13.8708 28.731 31.0358 
120 0 3 12.2166 29.0825 30.8619 
121 0 2 18.8225 28.6106 30.339 
122 0 1 22.5461 22.2093 25.7942 
123 0 2 21.1167 22.7101 25.6448 
124 0 2 20.7413 23.3616 26.9593 
125 0 2 19.4079 24.056 26.792 
126 0 2 18.6508 23.9657 28.1813 
127 0 2 17.7228 25.1538 27.9858 
128 0 2 17.2724 25.8135 29.2482 
129 0 2 16.7148 27.2336 29.4278 
130 0 3 17.1925 28.1625 30.6484 
131 0 2 16.6719 26.978 31.7697 
132 0 1 25.6043 21.8947 36.3283 
133 0 2 24.6938 23.0018 35.7883 
134 0 2 23.2458 22.5911 35.5028 
135 0 2 22.4627 23.5863 34.6448 
136 0 2 21.2372 22.939 33.925 
137 0 2 20.6764 23.722 32.6786 
138 0 2 19.1401 23.8272 32.5569 
139 0 2 18.5575 25.1043 31.9151 
140 0 3 17.0716 25.5221 31.9842 
141 0 2 16.406 24.258 31.5868 
142 0 1 7.84807 21.913 37.4586 
143 0 2 9.31757 21.4845 37.5721 
144 0 2 9.9959 21.6912 36.2288 
145 0 2 11.5127 21.6888 36.2081 
146 0 2 12.0954 22.7516 35.281 
147 0 2 13.2874 22.2317 34.4129 
148 0 2 14.1715 23.2399 33.6154 
149 0 2 14.6346 22.8076 32.204 
150 0 3 15.0372 23.9165 31.1346 
151 0 2 15.3224 23.2417 29.7193 
152 0 1 17.7033 31.1615 23.0245 
153 0 2 16.9706 30.8814 24.3195 
154 0 2 17.5429 29.5125 24.6973 
155 0 2 16.3723 28.7941 25.2717 
156 0 2 16.5785 27.5553 26.0764 
157 0 2 15.2234 27.4516 26.8498 
158 0 2 15.2196 25.9764 27.044 
159 0 2 14.6228 25.3208 28.2453 
160 0 3 15.0814 23.8841 28.3297 
161 0 2 14.3236 23.0235 27.3641 
162 0 1 14.5389 30.9579 21.302 
163 0 2 13.6376 31.1135 22.5475 
164 0 2 14.3712 29.7904 22.7867 
165 0 2 13.6959 28.9038 23.7681 
166 0 2 14.3182 27.5381 23.4713 
167 0 2 13.6225 26.728 24.534 
168 0 2 13.9001 25.2531 24.4058 
169 0 2 13.2176 24.5599 25.5682 
170 0 3 13.8459 23.2526 25.9516 
171 0 2 12.7992 22.1888 25.589 
172 0 1 13.5575 17.3962 15.8834 
173 0 2 12.8166 18.5446 16.5547 
174 0 2 13.8513 19.1156 17.5747 
175 0 2 12.9899 19.6198 18.7266 
176 0 2 13.6993 19.649 20.0674 
177 0 2 12.6686 20.1847 21.0591 
178 0 2 13.4745 20.7581 22.2012 
179 0 2 12.5954 21.4019 23.2575 
180 0 3 13.2595 21.1214 24.6082 
181 0 2 12.8847 19.6914 25.0624 
182 0 1 21.861 14.1827 27.8324 
183 0 2 20.7162 15.1458 27.5933 
184 0 2 19.2824 14.7898 27.2547 
185 0 2 19.1346 15.7794 26.0674 
186 0 2 17.7258 16.1808 25.9405 
187 0 2 17.2131 17.1622 24.943 
188 0 2 15.8741 17.7436 25.3432 
189 0 2 15.2005 18.811 24.5576 
190 0 3 13.708 18.5112 24.5341 
191 0 2 13.1585 17.5693 23.4314 
192 0 1 19.0556 9.2013 26.1212 
193 0 2 19.1369 10.4229 25.1981 
194 0 2 18.4172 11.4234 26.049 
195 0 2 17.4535 12.602 26.1038 
196 0 2 16.3936 12.9116 25.0833 
197 0 2 16.2571 14.1794 24.2794 
198 0 2 15.1082 15.0063 24.4906 
199 0 2 15.148 15.9309 23.2271 
200 0 3 13.6709 16.138 23.245 
201 0 2 12.9535 14.9263 22.6579 
202 0 1 22.3261 10.3 19.7828 
203 0 2 20.8297 10.2105 19.5824 
204 0 2 19.9522 10.5246 20.78 
205 0 2 19.2189 11.7898 20.3901 
206 0 2 17.854 12.0638 20.9207 
207 0 2 17.3234 13.446 20.6424 
208 0 2 15.8228 13.6353 20.6546 
209 0 2 14.9482 13.2248 21.8264 
210 0 3 13.5572 13.8201 21.7736 
211 0 2 12.4838 13.2109 20.9089 
212 0 1 6.97284 8.60763 12.5491 
213 0 2 7.34105 8.79561 13.9706 
214 0 2 8.19961 9.94654 14.4631 
215 0 2 7.88295 9.97357 16.0162 
216 0 2 8.54394 11.043 16.9695 
217 0 2 9.3027 10.572 18.3414 
218 0 2 10.82 11.0193 18.4476 
219 0 2 11.6721 11.1034 19.7004 
220 0 3 12.7537 12.1921 19.8309 
221 0 2 13.5687 12.7355 18.6589 
222 0 1 8.90704 5.42417 13.637 
223 0 2 10.3586 5.4653 14.054 
224 0 2 10.2507 7.01245 14.1062 
225 0 2 9.98806 7.86505 12.6652 
226 0 2 9.09515 7.52762 11.4665 
227 0 2 16.2068 9.87073 20.946 
228 0 2 15.1284 9.84481 19.9072 
229 0 2 15.1017 10.8176 18.7968 
230 0 3 14.4297 11.7078 17.905 
231 0 2 16.0872 12.4739 17.9106 
232 0 1 27.0291 13.0199 17.0324 
233 0 2 25.7617 12.4268 16.4711 
234 0 2 24.5751 12.5543 17.4091 
235 0 2 23.4448 12.199 16.4948 
236 0 2 22.1754 12.2453 17.3196 
237 0 2 20.8293 12.3422 16.6099 
238 0 2 19.7445 12.6857 17.6013 
239 0 2 18.5914 12.0021 17.0099 
240 0 3 17.4044 11.6452 17.7985 
241 0 2 17.6435 10.1755 18.0693 
242 0 1 23.0176 2.19882 14.1935 
243 0 2 23.1793 1.62715 15.645 
244 0 2 23.7886 0.293899 15.0084 
245 0 2 20.6738 7.70294 18.4677 
246 0 2 21.1032 6.33247 17.8271 
247 0 2 19.4999 5.83722 17.625 
248 0 2 18.2171 6.75098 17.9771 
249 0 2 18.2795 8.03782 17.163 
250 0 3 17.2731 9.1339 17.0681 
251 0 2 15.9031 8.95623 16.4773 
252 0 1 20.3267 17.1965 10.8585 
253 0 2 19.7576 16.6446 12.1627 
254 0 2 18.9609 15.3227 12.0677 
255 0 2 19.1015 14.7908 13.4517 
256 0 2 18.3349 13.8661 14.3187 
257 0 2 16.8872 13.4939 14.4604 
258 0 2 16.7029 12.1425 15.0598 
259 0 2 15.4852 11.2868 15.1828 
260 0 3 15.5156 9.73492 15.2675 
261 0 2 14.5813 9.15703 14.2505 
262 0 1 16.651 -1.32834 11.2973 
263 0 2 16.8974 0.133578 11.4326 
264 0 2 16.299 1.37956 12.2244 
265 0 2 17.2184 1.88404 11.0912 
266 0 2 13.8733 4.16594 15.1189 
267 0 2 14.9959 4.00117 13.9953 
268 0 2 14.8355 5.35243 13.1789 
269 0 2 14.7701 6.58243 14.1198 
270 0 3 13.8988 7.79389 13.8902 
271 0 2 13.2288 8.08118 12.4972 
272 0 1 8.16169 -1.03049 8.46474 
273 0 2 9.53642 -0.534998 8.17374 
274 0 2 9.45866 1.01164 7.73362 
275 0 2 10.5583 1.35598 8.70799 
276 0 2 11.6844 2.13262 9.56243 
277 0 2 11.6369 0.498874 9.30093 
278 0 2 11.8121 8.33794 10.2404 
279 0 2 11.956 6.8029 10.3246 
280 0 3 13.482 7.20874 11.1314 
281 0 2 14.3954 7.70233 9.89214 
282 0 1 23.9225 11.4608 7.02337 
283 0 2 22.5239 10.9588 7.26924 
284 0 2 26.4239 11.3909 9.07291 
285 0 2 18.0373 11.6049 5.14947 
286 0 2 20.1109 10.6817 5.53352 
287 0 2 20.7124 11.9265 3.9722 
288 0 2 15.8429 7.99778 12.163 
289 0 2 16.6387 8.54769 11.0949 
290 0 3 15.9255 7.70995 9.89085 
291 0 2 16.3882 6.26334 10.0075 
292 0 1 25.2934 4.77491 15.81 
293 0 2 24.3777 5.9771 15.5466 
294 0 2 23.0642 5.3914 15.0148 
295 0 2 22.5262 6.13282 13.8248 
296 0 2 21.3227 5.56579 13.0843 
297 0 2 20.0038 5.60476 13.6805 
298 0 2 18.7911 5.26091 12.78 
299 0 2 18.3935 6.30878 11.7729 
300 0 3 17.7691 5.95405 10.468 
301 0 2 18.4947 4.79138 9.93593 
302 0 1 27.7054 3.0722 13.9078 
303 0 2 27.0664 3.391 12.5654 
304 0 2 25.6361 2.87104 12.4563 
305 0 2 24.9877 3.17064 11.1089 
306 0 2 23.6272 3.82861 11.1996 
307 0 2 23.1478 4.55371 9.93804 
308 0 2 21.9682 5.34924 10.4067 
309 0 2 20.8735 6.03806 9.63748 
310 0 3 19.8073 5.06813 9.29303 
311 0 2 20.3161 3.84429 8.57909 
312 0 1 28.8266 -1.85222 9.33422 
313 0 2 27.3823 -1.67891 9.77415 
314 0 2 26.5218 -1.0833 8.67098 
315 0 2 25.3746 -0.247267 9.23388 
316 0 2 24.9472 0.799477 8.22646 
317 0 2 23.6029 1.35111 8.68121 
318 0 2 23.0873 1.98105 7.43101 
319 0 2 21.721 2.52258 7.34401 
320 0 3 21.4079 3.94784 7.63855 
321 0 2 21.7899 5.22936 6.92875 
322 0 1 30.8567 9.54159 9.70804 
323 0 2 30.0329 10.2846 8.68605 
324 0 2 28.6373 9.76506 8.93664 
325 0 2 27.9754 9.82075 7.51074 
326 0 2 26.656 9.05972 7.64151 
327 0 2 25.5553 8.76976 6.66322 
328 0 2 24.6754 7.76545 7.4438 
329 0 2 23.5336 7.11312 6.67273 
330 0 3 23.2426 5.69177 7.1369 
331 0 2 24.0334 4.57126 6.517 
332 0 1 32.3203 0.252892 11.0668 
333 0 2 30.8779 0.752062 11.0266 
334 0 2 30.8185 1.93656 10.0423 
335 0 2 29.9876 3.16262 10.4294 
336 0 2 29.5594 4.08006 9.27767 
337 0 2 28.109 4.2595 9.67095 
338 0 2 26.8713 3.85315 8.94542 
339 0 2 25.8391 4.30608 8.02911 
340 0 3 25.5238 4.39138 6.57704 
341 0 2 26.0863 5.3958 5.61635 
342 0 1 21.6664 2.04537 -3.96132 
343 0 2 22.4275 1.45136 -2.78052 
344 0 2 22.5855 2.55909 -1.74556 
345 0 2 23.5654 2.07696 -0.689206 
346 0 2 23.8848 3.22298 0.240827 
347 0 2 24.9007 2.77816 1.30228 
348 0 2 25.035 4.07214 2.07588 
349 0 2 25.4649 4.10661 3.51854 
350 0 3 25.4638 5.46807 4.19939 
351 0 2 26.2726 6.53897 3.51226 
352 0 1 25.3171 16.7138 -0.62318 
353 0 2 25.3172 15.2938 -0.119439 
354 0 2 24.9151 14.1047 -1.02415 
355 0 2 25.1299 12.9971 -0.020448 
356 0 2 24.938 11.481 0.013834 
357 0 2 25.0223 11.1012 1.53201 
358 0 2 25.4838 9.68733 1.63968 
359 0 2 25.3989 8.89392 2.93156 
360 0 3 25.654 7.4518 2.52056 
361 0 1 24.7491 6.86392 1.47042 
362 1 1 8.43847 22.5898 1.14506 
363 1 2 9.40947 21.8717 2.08101 
364 1 2 8.67176 21.4862 3.35993 
365 1 2 9.66804 21.1209 4.45059 
366 1 2 8.9479 20.8734 5.76765 
367 1 2 9.91241 20.348 6.80807 
368 1 2 9.22752 19.7172 8.00812 
369 1 2 10.0909 19.5739 9.26975 
370 1 3 9.99471 18.2044 9.91912 
371 1 1 9.89228 17.0105 8.98429 
372 1 2 11.1483 17.9897 10.8849 
373 1 2 10.7417 16.9502 11.9366 
374 1 2 11.7889 17.1107 13.0408 
375 1 2 12.708 15.7926 12.6112 
376 1 2 10.8139 15.7658 15.2232 
377 1 2 11.8263 14.7263 15.7811 
378 1 2 10.9265 14.879 17.0163 
379 1 2 10.6997 13.832 18.0332 
380 1 2 9.39049 14.1541 18.7332 
381 1 1 8.92256 13.1203 19.7387 
382 2 1 8.57511 20.5278 -5.86437 
383 2 2 9.10643 20.6014 -4.44622 
384 2 2 9.07026 19.2943 -3.66153 
385 2 2 9.41116 19.6482 -2.20559 
386 2 2 9.48016 18.4199 -1.32983 
387 2 2 9.91538 18.6559 0.120573 
388 2 2 10.121 17.2572 0.672647 
389 2 2 10.6593 17.0594 2.04917 
390 2 3 11.6908 15.9815 2.20919 
391 2 1 11.4346 14.5333 1.93852 
392 2 2 12.7426 16.3091 3.2126 
393 2 2 12.6164 15.5183 4.48795 
394 2 2 13.0099 16.3767 5.72008 
395 2 2 12.2934 15.6174 6.77284 
396 2 2 12.0877 14.8768 8.12704 
397 2 2 13.4587 12.5777 9.04509 
398 2 2 12.4594 13.2372 6.81185 
399 2 2 13.7454 11.5718 11.2223 
400 2 2 12.4242 10.9025 10.7391 
401 2 1 13.841 10.4766 11.2806 
402 3 1 4.46558 0.977705 34.3047 
403 3 2 4.34167 1.32358 32.8353 
404 3 2 5.27431 1.21949 31.6641 
405 3 2 4.6998 1.87064 30.3967 
406 3 2 5.24559 3.22463 29.8837 
407 3 2 4.69615 3.39547 28.4647 
408 3 2 5.24607 4.436 27.4668 
409 3 2 4.62225 4.0151 26.1386 
410 3 3 5.22735 3.94345 24.7617 
411 3 1 5.14685 2.42049 24.4501 
412 3 2 4.37439 4.65839 23.7123 
413 3 3 4.94328 4.93761 22.3089 
414 3 2 5.73468 3.77125 21.7532 
415 3 2 5.86428 3.53436 20.2704 
416 3 2 6.75449 4.4873 19.5393 
417 3 2 6.85353 4.09239 18.0937 
418 3 2 7.44339 5.27584 17.3219 
419 3 2 6.93566 4.87177 15.9446 
420 3 2 6.57939 6.0938 15.1327 
421 3 1 5.94269 5.63975 13.8199 
422 3 2 3.7501 5.28992 21.3969 
423 3 2 4.22708 6.18713 20.2565 
424 3 2 3.25614 6.2254 19.0898 
425 3 2 4.10585 6.55408 17.8619 
426 3 2 3.33789 7.50642 16.9799 
427 3 2 4.00294 7.71284 15.6311 
428 3 2 3.02734 8.60778 14.9045 
429 3 2 3.5592 9.12137 13.5922 
430 3 2 2.32975 9.79146 12.9675 
431 3 1 2.76194 9.9593 11.533 
432 4 1 21.6467 -8.97417 18.6647 
433 4 2 20.0399 -6.34633 21.0715 
434 4 2 20.5643 -6.24889 19.595 
435 4 2 19.9888 -4.84917 19.2994 
436 4 2 20.389 -4.11144 18.0846 
437 4 2 20.9298 -2.71773 18.215 
438 4 2 20.5833 -2.27214 16.8188 
439 4 2 21.1957 -0.913371 16.547 
440 4 3 20.5991 -0.282547 15.3033 
441 4 1 20.5231 -1.16494 14.0671 
442 4 2 19.1061 -0.236969 15.5763 
443 4 3 18.2343 0.74024 14.8995 
444 4 2 18.7111 1.36911 13.7036 
445 4 2 20.0165 1.677 12.8621 
446 4 2 20.3196 2.93016 11.2369 
447 4 2 19.7533 1.52071 11.4409 
448 4 2 23.6407 11.4802 10.2897 
449 4 2 22.8966 9.38012 10.4176 
450 4 2 22.7372 7.99737 11.2697 
451 4 1 22.7455 15.1286 7.64476 
452 4 2 19.6954 3.52415 16.2359 
453 4 2 18.8821 2.13057 16.5138 
454 4 2 22.1669 10.0662 15.6949 
455 4 2 21.51 8.78253 15.9146 
456 4 2 20.9687 9.28625 14.3047 
457 4 2 21.7606 10.056 13.1625 
458 4 2 21.9927 11.5302 13.6179 
459 4 2 22.3719 12.4894 12.5558 
460 4 2 22.0154 13.9557 12.7844 
461 4 1 21.8844 14.5701 11.3865 
462 5 1 15.4307 15.8266 14.5596 
463 5 2 15.7129 16.1687 13.0975 
464 5 2 16.5578 17.4106 12.9309 
465 5 2 16.7138 18.1399 11.6457 
466 5 2 17.5585 17.6496 10.4866 
467 5 2 17.6258 18.7775 9.47875 
468 5 2 18.5848 18.5585 8.31153 
469 5 2 18.2118 19.5977 7.25631 
470 5 3 18.5749 19.3954 5.79637 
471 5 1 18.9148 17.9777 5.36563 
472 5 2 17.5634 20.1299 4.91328 
473 5 3 17.8989 20.6129 3.51273 
474 5 2 18.6071 19.5621 2.6951 
475 5 2 18.5381 19.5776 1.20333 
476 5 2 19.2273 20.6583 0.470573 
477 5 2 18.4369 20.8147 -0.8261 
478 5 2 19.2415 21.9486 -1.43671 
479 5 2 18.7984 22.0599 -2.87243 
480 5 2 19.7798 23.0222 -3.51175 
481 5 1 19.0382 23.586 -4.70595 
482 5 2 16.7213 21.3373 2.84574 
483 5 2 17.2227 22.4339 1.90956 
484 5 2 16.2772 22.9026 0.827876 
485 5 2 17.0204 23.7699 -0.16153 
486 5 2 16.091 24.4726 -1.12222 
487 5 2 16.9461 24.9635 -2.26918 
488 5 2 16.1217 26.045 -2.93799 
489 5 2 17.0008 26.5054 -4.06823 
490 5 2 16.3257 27.6696 -4.79783 
491 5 1 16.4489 26.8126 -6.06564 
492 6 1 10.5584 29.307 3.40927 
493 6 2 11.6532 28.7373 4.27644 
494 6 2 11.21 27.5088 5.03038 
495 6 2 12.3053 26.7766 5.81301 
496 6 2 11.8246 25.3813 5.83219 
497 6 2 12.4481 24.2356 6.50192 
498 6 2 11.9672 22.8851 6.03028 
499 6 2 12.6494 21.7786 6.81422 
500 6 3 13.3623 20.7072 6.03939 
501 6 1 13.164 20.596 4.57319 
502 6 2 14.6959 20.1509 6.50704 
503 6 3 15.0012 18.6823 6.18637 
504 6 2 15.037 18.2187 4.75453 
505 6 2 16.0616 17.1293 4.48302 
506 6 2 15.4587 15.7783 4.16129 
507 6 2 16.0808 14.4409 4.45496 
508 6 2 14.8724 13.5534 4.14119 
509 6 2 15.1584 12.1752 4.57644 
510 6 2 13.9543 11.268 4.66783 
511 6 1 14.8815 10.1096 4.34768 
512 6 2 15.4791 17.7794 7.29062 
513 6 3 15.9098 16.1047 6.84772 
514 6 2 16.8761 15.9028 7.89079 
515 6 2 17.9387 15.1428 7.11236 
516 6 2 19.1154 14.4955 7.83136 
517 6 2 19.0161 12.9693 7.92505 
518 6 2 19.9869 11.9641 8.56098 
519 6 2 19.4048 10.4472 8.56834 
520 6 2 19.6309 10.1355 10.0853 
521 6 1 19.8186 8.66938 10.4742 
522 6 2 12.9954 18.4181 8.5924 
523 6 2 12.1139 18.7525 7.62324 
524 6 2 19.601 12.1206 12.7408 
525 6 2 17.6333 12.5667 10.3148 
526 6 2 16.6178 12.6926 11.3474 
527 6 2 16.3098 11.5562 12.2833 
528 6 2 17.4005 10.6077 12.5189 
529 6 2 18.0714 10.0938 13.7541 
530 6 2 18.4966 8.74353 13.2746 
531 6 1 18.007 7.79852 14.3428 
532 7 1 23.3631 0.96727 28.2538 
533 7 2 23.3175 1.95364 27.13 
534 7 2 22.8299 3.31217 27.474 
535 7 2 22.117 4.15761 26.4176 
536 7 2 22.063 5.61182 26.9363 
537 7 2 21.6423 6.33799 25.6563 
538 7 2 21.8917 7.80761 25.869 
539 7 2 21.9428 8.60682 24.5604 
540 7 3 22.2086 10.1011 24.5967 
541 7 1 22.3013 10.5665 26.0001 
542 7 2 21.8067 11.0208 23.3891 
543 7 3 22.342 12.4951 23.1987 
544 7 2 22.6613 13.1113 24.5986 
545 7 2 22.9855 14.5283 24.8637 
546 7 2 21.9563 15.6031 24.8381 
547 7 2 22.4295 16.8 24.0793 
548 7 2 21.2829 17.746 23.7518 
549 7 2 22.0953 18.8482 23.0726 
550 7 2 21.3678 19.6414 22.0282 
551 7 1 22.274 20.5789 21.2603 
552 7 2 21.596 13.8027 21.9122 
553 7 3 18.9363 13.2162 24.0724 
554 7 2 26.4106 15.9234 16.7087 
555 7 2 24.9035 15.9282 17.5568 
556 7 2 23.6753 16.7024 18.2933 
557 7 2 23.7979 18.2213 18.4049 
558 7 2 23.7456 18.4895 16.9157 
559 7 2 23.8982 19.9136 16.5333 
560 7 2 23.6122 19.8733 15.0402 
561 7 1 23.3427 21.2812 14.7703 
562 7 2 19.8509 13.6427 23.052 
563 7 2 20.0426 13.0959 24.5591 
564 7 2 18.0056 16.6197 15.1143 
565 7 2 18.4156 16.0749 16.4634 
566 7 2 20.0674 15.984 16.3553 
567 7 2 20.5721 17.4215 16.1165 
568 7 2 20.9191 17.9427 14.7507 
569 7 2 20.0135 19.0777 14.227 
570 7 2 20.7339 19.5569 12.9554 
571 7 1 19.8419 20.2606 11.9415 
572 8 1 14.2347 15.4599 10.5392 
573 8 2 15.2691 16.311 9.66739 
574 8 2 10.1635 12.5054 14.1983 
575 8 2 11.2818 13.318 13.1886 
576 8 2 12.8361 12.8536 13.5959 
577 8 2 12.909 11.3838 14.0685 
578 8 2 11.9819 10.7047 15.0287 
579 8 2 11.9735 9.18596 15.7861 
580 8 3 10.57 9.42479 16.2426 
581 8 1 17.7691 5.02534 15.4598 
582 8 2 12.1047 8.28145 16.2894 
583 8 3 12.1304 6.93491 17.3694 
584 8 2 13.2806 6.00203 17.0322 
585 8 2 13.3015 4.57548 17.6712 
586 8 2 12.1574 3.60065 17.3043 
587 8 2 12.3337 2.38311 18.2075 
588 8 2 10.9763 1.72124 18.4241 
589 8 2 11.1166 0.782264 19.6121 
590 8 2 9.78231 0.158337 19.9672 
591 8 1 9.92518 -0.549099 21.311 
592 8 2 12.021 7.00188 18.9289 
593 8 3 11.5977 5.63557 19.6057 
594 8 2 12.2055 5.1404 20.8998 
595 8 2 11.9885 3.6727 21.3338 
596 8 2 11.2592 3.69341 22.6687 
597 8 2 10.8872 2.36763 23.2993 
598 8 2 10.6272 2.69344 24.7709 
599 8 2 10.2676 1.40871 25.4796 
600 8 2 10.2894 1.69721 26.9401 
601 8 1 9.76403 0.614529 27.8355 
602 8 2 10.1475 5.29334 19.3694 
603 8 2 9.25394 6.13004 20.3026 
604 8 2 8.96712 5.15919 21.431 
605 8 2 8.41535 5.67042 22.727 
606 8 2 8.31688 4.46863 23.6784 
607 8 2 8.11938 5.00577 25.0732 
608 8 2 8.22541 4.14886 26.2999 
609 8 2 7.55888 2.79856 26.4272 
610 8 2 7.48903 2.44109 27.9172 
611 8 1 6.80304 1.07623 28.0758 
612 9 1 16.5974 7.85645 6.84375 
613 9 2 19.9656 3.85842 4.88504 
614 9 2 20.3872 2.62936 4.80673 
615 9 2 15.2904 13.3388 7.61903 
616 9 2 15.9504 12.0156 7.18072 
617 9 2 15.0502 10.5432 7.85763 
618 9 2 13.5837 9.97846 7.66182 
619 9 2 12.157 10.5763 7.66547 
620 9 3 10.882 10.7803 8.43705 
621 9 1 9.98584 9.73799 8.95618 
622 9 2 9.90445 11.9591 8.43072 
623 9 3 9.29908 12.6134 9.68563 
624 9 2 9.11982 11.9958 11.0575 
625 9 2 8.00219 12.5436 11.9752 
626 9 2 6.67497 12.0739 11.424 
627 9 2 5.44676 12.8208 11.8718 
628 9 2 4.52102 12.8313 10.6866 
629 9 2 3.2307 13.5394 11.0446 
630 9 2 2.34497 13.9897 9.88314 
631 9 1 1.17034 14.662 10.5568 
632 9 2 9.0433 14.1038 9.53297 
633 9 3 7.59797 14.5644 9.64011 
634 9 2 7.29444 15.8575 10.3698 
635 9 2 5.84315 16.1107 10.7782 
636 9 2 5.41135 17.5658 10.5407 
637 9 2 3.882 17.6005 10.4838 
638 9 2 3.30111 18.9842 10.2892 
639 9 2 1.7847 18.9421 10.0979 
640 9 2 1.18972 20.3309 10.0655 
641 9 1 -0.246293 20.4494 9.60159 
642 9 2 6.68884 13.9934 8.58992 
643 9 2 6.356 14.801 7.36426 
644 9 2 5.4114 15.9205 7.71354 
645 9 2 4.83152 16.7053 6.57222 
646 9 2 4.35818 18.0176 7.15879 
647 9 2 3.81827 18.9237 6.0662 
648 9 2 2.85313 19.8167 6.82012 
649 9 2 2.03918 20.6537 5.85414 
650 9 2 0.962293 21.3206 6.6904 
651 9 1 -0.215842 21.7242 5.84032 
ITEM: TIMESTEP
10
ITEM: NUMBER OF ATOMS
651
ITEM: BOX BOUNDS pp pp pp
0.0000000000000000e+00 2.3503699999999998e+01
0.0000000000000000e+00 2.3503699999999998e+01
0.0000000000000000e+00 2.3503699999999998e+01
ITEM: ATOMS id mol type xu yu zu 
1 0 1 1.2491 40.0152 29.6024 
2 0 2 1.04099 38.845 28.6434 
3 0 2 2.17615 38.735 27.6407 
4 0 2 2.25679 37.387 26.9127 
5 0 2 3.40905 37.399 25.9006 
6 0 2 4.01082 36.0392 25.4463 
7 0 2 4.23275 36.043 23.935 
8 0 2 4.18705 34.9658 22.8688 
9 0 3 4.08095 35.171 21.3527 
10 0 2 3.40317 36.2741 20.5316 
11 0 1 5.2764 34.6069 20.6027 
12 0 1 2.98836 47.5706 19.4951 
13 0 2 3.27052 46.2104 18.8674 
14 0 2 2.72591 45.0566 19.714 
15 0 2 3.14204 43.7693 19.0056 
16 0 2 2.91539 42.4986 19.8156 
17 0 2 3.65405 41.3327 19.1281 
18 0 2 3.4214 40.0492 19.9125 
19 0 2 4.09197 38.7104 19.5265 
20 0 3 3.84846 37.7263 20.6605 
21 0 2 4.85578 37.934 21.7224 
22 0 1 6.64229 47.8892 21.1505 
23 0 2 6.58783 46.8435 20.0442 
24 0 2 5.93903 45.8544 20.9893 
25 0 2 6.16331 44.4406 20.5591 
26 0 2 5.49244 43.7036 21.6924 
27 0 2 5.82072 42.2655 21.4097 
28 0 2 5.05848 41.5846 22.5423 
29 0 2 5.30597 40.2122 22.0569 
30 0 3 4.74635 39.0198 22.7728 
31 0 2 5.57135 38.6716 24.0237 
32 0 1 15.9908 40.1154 20.4597 
33 0 2 14.7325 39.9461 19.6496 
34 0 2 13.1993 39.797 19.9429 
35 0 2 12.9882 39.8806 18.8134 
36 0 2 10.2702 37.9998 22.6765 
37 0 2 10.1628 38.7722 21.6723 
38 0 2 8.95172 38.5464 22.5519 
39 0 2 7.56362 38.8576 22.8016 
40 0 3 6.94179 37.9503 23.8905 
41 0 2 6.8672 36.5211 23.3426 
42 0 1 17.0203 34.0814 23.3976 
43 0 2 15.6231 33.581 23.5554 
44 0 2 14.596 34.3141 24.3273 
45 0 2 13.4402 34.1904 23.3707 
46 0 2 12.3075 34.9572 23.9823 
47 0 2 11.1892 34.787 22.9853 
48 0 2 9.9985 35.2007 23.8001 
49 0 2 8.85595 35.2724 22.7825 
50 0 3 7.67984 35.3288 23.7448 
51 0 2 7.05272 33.9752 23.3731 
52 0 1 16.2522 29.9546 27.9796 
53 0 2 15.5887 30.9939 27.162 
54 0 2 14.1244 30.6145 26.9461 
55 0 2 13.5683 31.3085 25.7171 
56 0 2 12.1671 31.8384 25.8358 
57 0 2 11.3395 31.808 24.5759 
58 0 2 9.94389 32.2812 24.9232 
59 0 2 9.09989 32.3748 23.6591 
60 0 3 7.69098 32.7855 24.0728 
61 0 2 6.91514 31.4932 24.0297 
62 0 1 -3.69668 30.4969 21.0349 
63 0 2 -2.59988 31.1103 21.8763 
64 0 2 -1.22071 30.5465 21.5584 
65 0 2 -0.129139 31.5956 21.7803 
66 0 2 1.24272 30.9606 21.9047 
67 0 2 2.3754 31.962 22.1651 
68 0 2 3.43801 31.2776 23.0224 
69 0 2 4.59471 32.0836 23.5332 
70 0 3 5.50737 31.4233 24.5597 
71 0 2 5.34905 32.0046 25.9597 
72 0 1 2.09024 29.6403 36.0707 
73 0 2 2.64526 30.4856 34.9678 
74 0 2 2.53779 30.1647 33.5086 
75 0 2 3.98612 30.5064 33.0304 
76 0 2 4.35049 30.078 31.5972 
77 0 2 5.57878 30.5585 30.832 
78 0 2 5.00876 30.5786 29.4178 
79 0 2 5.1643 31.7254 28.4404 
80 0 3 5.84143 31.2092 27.1654 
81 0 2 7.3481 31.0412 27.3716 
82 0 1 7.03129 41.864 28.5873 
83 0 2 7.04929 40.8742 27.4119 
84 0 2 6.84511 39.4935 27.9913 
85 0 2 7.0171 38.2622 27.14 
86 0 2 6.9659 37.0669 28.0889 
87 0 2 7.29676 35.7954 27.3545 
88 0 2 7.36888 34.6025 28.2962 
89 0 2 7.79098 33.4954 27.3435 
90 0 3 8.06718 32.2025 28.0772 
91 0 2 9.53524 31.8841 28.1773 
92 0 1 11.3193 41.9753 28.2369 
93 0 2 9.9853 41.3709 28.4684 
94 0 2 9.84147 40.2193 29.4232 
95 0 2 9.72779 38.9804 28.5605 
96 0 2 9.9302 37.6207 29.1786 
97 0 2 10.3942 36.6664 28.068 
98 0 2 10.6927 35.3213 28.6768 
99 0 2 10.732 34.1412 27.749 
100 0 3 10.5991 32.8811 28.5951 
101 0 2 11.971 32.1802 28.7841 
102 0 1 9.13748 25.7096 37.0358 
103 0 2 8.601 26.5148 35.9183 
104 0 2 9.58989 26.9882 34.8459 
105 0 2 9.16868 28.2253 34.0682 
106 0 2 9.15545 28.206 32.5485 
107 0 2 8.95899 29.6605 32.0715 
108 0 2 9.78694 29.9987 30.8775 
109 0 2 10.7821 31.1832 30.8269 
110 0 3 12.035 31.1017 29.8615 
111 0 2 13.3038 30.1129 30.1961 
112 0 1 11.6811 24.4757 38.5988 
113 0 2 11.8886 25.759 37.7985 
114 0 2 12.6105 25.5225 36.484 
115 0 2 12.8431 26.6951 35.5329 
116 0 2 14.0751 26.5003 34.6238 
117 0 2 14.3233 27.662 33.6366 
118 0 2 13.6701 27.6944 32.2551 
119 0 2 13.8745 28.708 31.0694 
120 0 3 12.7996 29.0634 30.8173 
121 0 2 18.2313 28.6859 30.3763 
122 0 1 22.5478 22.2072 25.7923 
123 0 2 21.1189 22.7108 25.6445 
124 0 2 20.7382 23.3592 26.9578 
125 0 2 19.4061 24.0528 26.7983 
126 0 2 18.6523 23.9643 28.1743 
127 0 2 17.7345 25.1492 27.9832 
128 0 2 17.286 25.8231 29.2387 
129 0 2 16.7208 27.2416 29.4365 
130 0 3 17.1779 28.1151 30.6516 
131 0 2 16.6739 26.9858 31.7516 
132 0 1 25.6081 21.8955 36.3275 
133 0 2 24.6946 23.003 35.7882 
134 0 2 23.2455 22.5926 35.5014 
135 0 2 22.4608 23.5823 34.6456 
136 0 2 21.2389 22.9374 33.921 
137 0 2 20.6766 23.7141 32.6774 
138 0 2 19.1378 23.8215 32.5515 
139 0 2 18.5568 25.1002 31.9137 
140 0 3 17.0759 25.5188 31.9852 
141 0 2 16.4073 24.2502 31.5887 
142 0 1 7.84717 21.9123 37.4597 
143 0 2 9.31702 21.4843 37.5734 
144 0 2 9.99778 21.6866 36.2311 
145 0 2 11.5146 21.6868 36.2095 
146 0 2 12.0998 22.7454 35.2822 
147 0 2 13.2887 22.2292 34.4144 
148 0 2 14.1691 23.238 33.6138 
149 0 2 14.639 22.812 32.2042 
150 0 3 15.0461 23.9115 31.1387 
151 0 2 15.3272 23.2447 29.7235 
152 0 1 17.7018 31.1597 23.0252 
153 0 2 16.9759 30.8764 24.3182 
154 0 2 17.5455 29.5138 24.6968 
155 0 2 16.3778 28.791 25.2679 
156 0 2 16.5758 27.5536 26.0762 
157 0 2 15.2276 27.4491 26.8477 
158 0 2 15.2166 25.9804 27.0427 
159 0 2 14.6214 25.3188 28.243 
160 0 3 15.0784 23.8815 28.3279 
161 0 2 14.3242 23.0305 27.3626 
162 0 1 14.5296 30.9453 21.3088 
163 0 2 13.6443 31.1067 22.5401 
164 0 2 14.3696 29.7938 22.7882 
165 0 2 13.6961 28.9008 23.767 
166 0 2 14.3167 27.5384 23.4715 
167 0 2 13.6241 26.7267 24.529 
168 0 2 13.8984 25.2511 24.4039 
169 0 2 13.2168 24.5558 25.5647 
170 0 3 13.8386 23.2507 25.9496 
171 0 2 12.7985 22.191 25.5863 
172 0 1 13.5517 17.4087 15.8811 
173 0 2 12.8201 18.5516 16.5519 
174 0 2 13.8485 19.1222 17.5697 
175 0 2 12.9898 19.623 18.7257 
176 0 2 13.6983 19.6516 20.0674 
177 0 2 12.671 20.1852 21.0578 
178 0 2 13.4746 20.7607 22.1999 
179 0 2 12.5964 21.4022 23.2584 
180 0 3 13.2586 21.1199 24.6064 
181 0 2 12.884 19.6927 25.0611 
182 0 1 21.8644 14.1909 27.8358 
183 0 2 20.7163 15.1505 27.5991 
184 0 2 19.2868 14.7945 27.2524 
185 0 2 19.1365 15.7786 26.071 
186 0 2 17.7364 16.1807 25.9337 
187 0 2 17.2156 17.1585 24.9388 
188 0 2 15.8765 17.7542 25.3336 
189 0 2 15.1995 18.8151 24.5533 
190 0 3 13.7104 18.5116 24.5341 
191 0 2 13.1604 17.5733 23.4255 
192 0 1 19.0537 9.19956 26.1211 
193 0 2 19.1384 10.4174 25.204 
194 0 2 18.4033 11.4132 26.0477 
195 0 2 17.4549 12.6011 26.099 
196 0 2 16.3901 12.9146 25.0848 
197 0 2 16.2655 14.1741 24.2799 
198 0 2 15.0997 15.0059 24.4849 
199 0 2 15.1408 15.9215 23.2309 
200 0 3 13.6767 16.1391 23.2411 
201 0 2 12.9631 14.9257 22.662 
202 0 1 22.3288 10.3011 19.7841 
203 0 2 20.8293 10.2118 19.5834 
204 0 2 19.9503 10.5245 20.7796 
205 0 2 19.2241 11.7913 20.395 
206 0 2 17.8538 12.0662 20.9234 
207 0 2 17.3265 13.4503 20.645 
208 0 2 15.8231 13.6333 20.6583 
209 0 2 14.9483 13.2186 21.822 
210 0 3 13.557 13.8208 21.7717 
211 0 2 12.4821 13.21 20.9068 
212 0 1 6.95313 8.615 12.5514 
213 0 2 7.337 8.79938 13.9776 
214 0 2 8.19507 9.94986 14.4692 
215 0 2 7.88008 9.97695 16.0157 
216 0 2 8.54175 11.0428 16.9757 
217 0 2 9.29815 10.5724 18.3387 
218 0 2 10.8169 11.0172 18.4517 
219 0 2 11.6723 11.0997 19.7032 
220 0 3 12.7567 12.1892 19.8324 
221 0 2 13.5681 12.7332 18.6553 
222 0 1 8.91861 5.42986 13.6465 
223 0 2 10.3586 5.47307 14.0538 
224 0 2 10.2474 7.01375 14.0893 
225 0 2 10.0186 7.90702 12.7248 
226 0 2 9.76836 7.70396 12.3254 
227 0 2 15.5843 9.61981 20.0388 
228 0 2 15.0574 9.87314 19.897 
229 0 2 15.1005 10.822 18.8058 
230 0 3 14.4492 11.7282 17.9112 
231 0 2 16.0588 12.4635 17.91 
232 0 1 27.0345 13.0142 17.0322 
233 0 2 25.7621 12.4253 16.4697 
234 0 2 24.5779 12.5532 17.4093 
235 0 2 23.4461 12.2061 16.4964 
236 0 2 22.177 12.244 17.3172 
237 0 2 20.8296 12.3462 16.6092 
238 0 2 19.7439 12.6851 17.5974 
239 0 2 18.5999 12.0021 17.0134 
240 0 3 17.4033 11.6416 17.8065 
241 0 2 17.6579 10.1721 18.0666 
242 0 1 23.0157 2.2002 14.2009 
243 0 2 23.1492 1.6413 15.6669 
244 0 2 23.547 0.963615 15.3024 
245 0 2 20.986 7.06325 18.1732 
246 0 2 21.0644 6.29175 17.8065 
247 0 2 19.5099 5.85158 17.636 
248 0 2 18.2253 6.75072 17.9801 
249 0 2 18.2774 8.03689 17.1651 
250 0 3 17.2759 9.13595 17.0692 
251 0 2 15.8989 8.94983 16.4812 
252 0 1 20.3368 17.1941 10.8568 
253 0 2 19.7588 16.6392 12.1621 
254 0 2 18.9584 15.3316 12.0643 
255 0 2 19.105 14.8213 13.4633 
256 0 2 18.3267 13.8706 14.3446 