ITEM: TIMESTEP
0
ITEM: NUMBER OF ATOMS
651
ITEM: BOX BOUNDS pp pp pp
0.0000000000000000e+00 2.3503699999999998e+01
0.0000000000000000e+00 2.3503699999999998e+01
0.0000000000000000e+00 2.3503699999999998e+01
ITEM: ATOMS id mol type x y z 
1 0 1 1.24802 16.509 6.09995 
2 0 2 1.03726 15.3402 5.13898 
3 0 2 2.17485 15.2314 4.13839 
4 0 2 2.25563 13.8833 3.40745 
5 0 2 3.40645 13.8969 2.39258 
6 0 2 4.0049 12.5344 1.93721 
7 0 2 4.22692 12.5461 0.421611 
8 0 2 4.18226 11.4671 22.871 
9 0 3 4.07616 11.6679 21.3575 
10 0 2 3.40494 12.7722 20.5352 
11 0 1 5.27514 11.1045 20.6048 
12 0 1 2.98908 0.56102 19.4947 
13 0 2 3.27186 22.7066 18.8681 
14 0 2 2.72643 21.5528 19.7152 
15 0 2 3.14237 20.2654 19.006 
16 0 2 2.91338 18.9953 19.8163 
17 0 2 3.65313 17.8261 19.1275 
18 0 2 3.42585 16.547 19.9155 
19 0 2 4.09082 15.2076 19.5255 
20 0 3 3.84574 14.2197 20.6637 
21 0 2 4.85531 14.4286 21.7267 
22 0 1 6.63833 0.888162 21.1502 
23 0 2 6.59011 23.3388 20.0406 
24 0 2 5.93797 22.3498 20.991 
25 0 2 6.16497 20.9364 20.5577 
26 0 2 5.48986 20.1999 21.6937 
27 0 2 5.82192 18.7607 21.4037 
28 0 2 5.05644 18.0789 22.542 
29 0 2 5.31124 16.7021 22.0552 
30 0 3 4.7358 15.5149 22.7729 
31 0 2 5.56648 15.163 0.519006 
32 0 1 15.9868 16.6039 20.4594 
33 0 2 14.7392 16.4421 19.6551 
34 0 2 13.1699 16.2834 19.9277 
35 0 2 13.2748 16.5836 18.4388 
36 0 2 9.98961 14.3055 23.0683 
37 0 2 10.1922 15.2586 21.6723 
38 0 2 8.94686 15.0491 22.5535 
39 0 2 7.55531 15.3576 22.7969 
40 0 3 6.94137 14.4395 0.391851 
41 0 2 6.85254 13.0149 23.3455 
42 0 1 17.028 10.5767 23.4047 
43 0 2 15.6249 10.0805 0.048837 
44 0 2 14.6022 10.8142 0.824614 
45 0 2 13.4398 10.6851 23.3682 
46 0 2 12.3076 11.454 0.478943 
47 0 2 11.1886 11.2833 22.9813 
48 0 2 9.99869 11.6977 0.298388 
49 0 2 8.85878 11.7716 22.777 
50 0 3 7.67546 11.8297 0.243418 
51 0 2 7.04902 10.4689 23.3721 
52 0 1 16.2533 6.45377 4.4889 
53 0 2 15.5907 7.49519 3.66032 
54 0 2 14.1226 7.11013 3.44343 
55 0 2 13.5663 7.80333 2.21224 
56 0 2 12.1662 8.33493 2.33633 
57 0 2 11.3412 8.30602 1.07164 
58 0 2 9.94422 8.78128 1.42167 
59 0 2 9.10228 8.87811 0.154543 
60 0 3 7.69106 9.28342 0.568535 
61 0 2 6.91571 7.98977 0.526558 
62 0 1 19.8079 6.99777 21.0317 
63 0 2 20.9036 7.60819 21.8775 
64 0 2 22.2821 7.04379 21.559 
65 0 2 23.3736 8.09372 21.7812 
66 0 2 1.24213 7.45606 21.9075 
67 0 2 2.37598 8.45848 22.1671 
68 0 2 3.438 7.77075 23.0237 
69 0 2 4.59269 8.58184 0.028732 
70 0 3 5.50874 7.91985 1.05649 
71 0 2 5.34851 8.49804 2.45687 
72 0 1 2.09205 6.13554 12.567 
73 0 2 2.64374 6.98436 11.4648 
74 0 2 2.53312 6.65721 10.002 
75 0 2 3.98892 6.99829 9.52081 
76 0 2 4.3435 6.57116 8.09778 
77 0 2 5.57553 7.06021 7.32913 
78 0 2 5.00226 7.07732 5.91447 
79 0 2 5.16069 8.2216 4.93917 
80 0 3 5.84102 7.70406 3.66002 
81 0 2 7.34685 7.53751 3.86691 
82 0 1 7.03512 18.3578 5.08684 
83 0 2 7.05165 17.3684 3.91075 
84 0 2 6.84811 15.9894 4.49175 
85 0 2 7.0189 14.7597 3.63644 
86 0 2 6.96894 13.5635 4.5884 
87 0 2 7.29856 12.293 3.85084 
88 0 2 7.3701 11.098 4.79414 
89 0 2 7.79272 9.99095 3.83818 
90 0 3 8.07142 8.69907 4.57213 
91 0 2 9.53608 8.37979 4.67822 
92 0 1 11.3286 18.471 4.73473 
93 0 2 9.98648 17.8684 4.96441 
94 0 2 9.85223 16.7132 5.92232 
95 0 2 9.73019 15.4769 5.05671 
96 0 2 9.93577 14.1201 5.67736 
97 0 2 10.3965 13.1634 4.56326 
98 0 2 10.6977 11.8191 5.17764 
99 0 2 10.7298 10.6376 4.24754 
100 0 3 10.5978 9.37888 5.08878 
101 0 2 11.9734 8.67651 5.28058 
102 0 1 9.14544 2.21004 13.528 
103 0 2 8.59643 3.01214 12.4119 
104 0 2 9.58591 3.48407 11.3406 
105 0 2 9.16735 4.71994 10.5651 
106 0 2 9.15219 4.69932 9.04726 
107 0 2 8.96218 6.15796 8.56316 
108 0 2 9.7986 6.49072 7.381 
109 0 2 10.7732 7.69836 7.33449 
110 0 3 12.0335 7.60999 6.35126 
111 0 2 13.3312 6.58176 6.70207 
112 0 1 11.68 0.974439 15.0944 
113 0 2 11.8869 2.25953 14.2942 
114 0 2 12.6093 2.02086 12.9818 
115 0 2 12.844 3.19055 12.0287 
116 0 2 14.0802 2.9916 11.1238 
117 0 2 14.3251 4.16119 10.13 
118 0 2 13.6709 4.18777 8.75974 
119 0 2 13.8708 5.22731 7.53214 
120 0 3 12.2166 5.57885 7.35818 
121 0 2 18.8225 5.10688 6.83535 
122 0 1 22.5461 22.2093 2.29054 
123 0 2 21.1167 22.7101 2.14112 
124 0 2 20.7413 23.3616 3.45559 
125 0 2 19.4079 0.552297 3.28829 
126 0 2 18.6508 0.462046 4.6776 
127 0 2 17.7228 1.65006 4.48215 
128 0 2 17.2724 2.30982 5.74447 
129 0 2 16.7148 3.72989 5.9241 
130 0 3 17.1925 4.65875 7.14467 
131 0 2 16.6719 3.47434 8.26599 
132 0 1 2.10061 21.8947 12.8246 
133 0 2 1.19007 23.0018 12.2846 
134 0 2 23.2458 22.5911 11.9991 
135 0 2 22.4627 0.082599 11.1411 
136 0 2 21.2372 22.939 10.4213 
137 0 2 20.6764 0.21829 9.17488 
138 0 2 19.1401 0.32352 9.05323 
139 0 2 18.5575 1.60065 8.41143 
140 0 3 17.0716 2.01836 8.48055 
141 0 2 16.406 0.754271 8.08307 
142 0 1 7.84807 21.913 13.9549 
143 0 2 9.31757 21.4845 14.0684 
144 0 2 9.9959 21.6912 12.7251 
145 0 2 11.5127 21.6888 12.7044 
146 0 2 12.0954 22.7516 11.7773 
147 0 2 13.2874 22.2317 10.9092 
148 0 2 14.1715 23.2399 10.1117 
149 0 2 14.6346 22.8076 8.70032 
150 0 3 15.0372 0.412773 7.63095 
151 0 2 15.3224 23.2417 6.21556 
152 0 1 17.7033 7.65784 23.0245 
153 0 2 16.9706 7.37769 0.815813 
154 0 2 17.5429 6.00882 1.19364 
155 0 2 16.3723 5.29036 1.76799 
156 0 2 16.5785 4.0516 2.57269 
157 0 2 15.2234 3.94791 3.34605 
158 0 2 15.2196 2.47266 3.54032 
159 0 2 14.6228 1.81714 4.74161 
160 0 3 15.0814 0.380441 4.82595 
161 0 2 14.3236 23.0235 3.86036 
162 0 1 14.5389 7.45421 21.302 
163 0 2 13.6376 7.60978 22.5475 
164 0 2 14.3712 6.28671 22.7867 
165 0 2 13.6959 5.4001 0.264361 
166 0 2 14.3182 4.03439 23.4713 
167 0 2 13.6225 3.22427 1.03032 
168 0 2 13.9001 1.74945 0.902094 
169 0 2 13.2176 1.05625 2.06451 
170 0 3 13.8459 23.2526 2.44792 
171 0 2 12.7992 22.1888 2.0853 
172 0 1 13.5575 17.3962 15.8834 
173 0 2 12.8166 18.5446 16.5547 
174 0 2 13.8513 19.1156 17.5747 
175 0 2 12.9899 19.6198 18.7266 
176 0 2 13.6993 19.649 20.0674 
177 0 2 12.6686 20.1847 21.0591 
178 0 2 13.4745 20.7581 22.2012 
179 0 2 12.5954 21.4019 23.2575 
180 0 3 13.2595 21.1214 1.10455 
181 0 2 12.8847 19.6914 1.55875 
182 0 1 21.861 14.1827 4.32865 
183 0 2 20.7162 15.1458 4.08957 
184 0 2 19.2824 14.7898 3.75096 
185 0 2 19.1346 15.7794 2.56366 
186 0 2 17.7258 16.1808 2.43683 
187 0 2 17.2131 17.1622 1.43927 
188 0 2 15.8741 17.7436 1.83954 
189 0 2 15.2005 18.811 1.05389 
190 0 3 13.708 18.5112 1.03042 
191 0 2 13.1585 17.5693 23.4314 
192 0 1 19.0556 9.2013 2.6175 
193 0 2 19.1369 10.4229 1.69441 
194 0 2 18.4172 11.4234 2.54526 
195 0 2 17.4535 12.602 2.60006 
196 0 2 16.3936 12.9116 1.57963 
197 0 2 16.2571 14.1794 0.775684 
198 0 2 15.1082 15.0063 0.98688 
199 0 2 15.148 15.9309 23.2271 
200 0 3 13.6709 16.138 23.245 
201 0 2 12.9535 14.9263 22.6579 
202 0 1 22.3261 10.3 19.7828 
203 0 2 20.8297 10.2105 19.5824 
204 0 2 19.9522 10.5246 20.78 
205 0 2 19.2189 11.7898 20.3901 
206 0 2 17.854 12.0638 20.9207 
207 0 2 17.3234 13.446 20.6424 
208 0 2 15.8228 13.6353 20.6546 
209 0 2 14.9482 13.2248 21.8264 
210 0 3 13.5572 13.8201 21.7736 
211 0 2 12.4838 13.2109 20.9089 
212 0 1 6.97284 8.60763 12.5491 
213 0 2 7.34105 8.79561 13.9706 
214 0 2 8.19961 9.94654 14.4631 
215 0 2 7.88295 9.97357 16.0162 
216 0 2 8.54394 11.043 16.9695 
217 0 2 9.3027 10.572 18.3414 
218 0 2 10.82 11.0193 18.4476 
219 0 2 11.6721 11.1034 19.7004 
220 0 3 12.7537 12.1921 19.8309 
221 0 2 13.5687 12.7355 18.6589 
222 0 1 8.90704 5.42417 13.637 
223 0 2 10.3586 5.4653 14.054 
224 0 2 10.2507 7.01245 14.1062 
225 0 2 9.98806 7.86505 12.6652 
226 0 2 9.09515 7.52762 11.4665 
227 0 2 16.2068 9.87073 20.946 
228 0 2 15.1284 9.84481 19.9072 
229 0 2 15.1017 10.8176 18.7968 
230 0 3 14.4297 11.7078 17.905 
231 0 2 16.0872 12.4739 17.9106 
232 0 1 3.52541 13.0199 17.0324 
233 0 2 2.25805 12.4268 16.4711 
234 0 2 1.07137 12.5543 17.4091 
235 0 2 23.4448 12.199 16.4948 
236 0 2 22.1754 12.2453 17.3196 
237 0 2 20.8293 12.3422 16.6099 
238 0 2 19.7445 12.6857 17.6013 
239 0 2 18.5914 12.0021 17.0099 
240 0 3 17.4044 11.6452 17.7985 
241 0 2 17.6435 10.1755 18.0693 
242 0 1 23.0176 2.19882 14.1935 
243 0 2 23.1793 1.62715 15.645 
244 0 2 0.284852 0.293899 15.0084 
245 0 2 20.6738 7.70294 18.4677 
246 0 2 21.1032 6.33247 17.8271 
247 0 2 19.4999 5.83722 17.625 
248 0 2 18.2171 6.75098 17.9771 
249 0 2 18.2795 8.03782 17.163 
250 0 3 17.2731 9.1339 17.0681 
251 0 2 15.9031 8.95623 16.4773 
252 0 1 20.3267 17.1965 10.8585 
253 0 2 19.7576 16.6446 12.1627 
254 0 2 18.9609 15.3227 12.0677 
255 0 2 19.1015 14.7908 13.4517 
256 0 2 18.3349 13.8661 14.3187 
257 0 2 16.8872 13.4939 14.4604 
258 0 2 16.7029 12.1425 15.0598 
259 0 2 15.4852 11.2868 15.1828 
260 0 3 15.5156 9.73492 15.2675 
261 0 2 14.5813 9.15703 14.2505 
262 0 1 16.651 22.1754 11.2973 
263 0 2 16.8974 0.133578 11.4326 
264 0 2 16.299 1.37956 12.2244 
265 0 2 17.2184 1.88404 11.0912 
266 0 2 13.8733 4.16594 15.1189 
267 0 2 14.9959 4.00117 13.9953 
268 0 2 14.8355 5.35243 13.1789 
269 0 2 14.7701 6.58243 14.1198 
270 0 3 13.8988 7.79389 13.8902 
271 0 2 13.2288 8.08118 12.4972 
272 0 1 8.16169 22.4732 8.46474 
273 0 2 9.53642 22.9687 8.17374 
274 0 2 9.45866 1.01164 7.73362 
275 0 2 10.5583 1.35598 8.70799 
276 0 2 11.6844 2.13262 9.56243 
277 0 2 11.6369 0.498874 9.30093 
278 0 2 11.8121 8.33794 10.2404 
279 0 2 11.956 6.8029 10.3246 
280 0 3 13.482 7.20874 11.1314 
281 0 2 14.3954 7.70233 9.89214 
282 0 1 0.418837 11.4608 7.02337 
283 0 2 22.5239 10.9588 7.26924 
284 0 2 2.92023 11.3909 9.07291 
285 0 2 18.0373 11.6049 5.14947 
286 0 2 20.1109 10.6817 5.53352 
287 0 2 20.7124 11.9265 3.9722 
288 0 2 15.8429 7.99778 12.163 
289 0 2 16.6387 8.54769 11.0949 
290 0 3 15.9255 7.70995 9.89085 
291 0 2 16.3882 6.26334 10.0075 
292 0 1 1.78975 4.77491 15.81 
293 0 2 0.874038 5.9771 15.5466 
294 0 2 23.0642 5.3914 15.0148 
295 0 2 22.5262 6.13282 13.8248 
296 0 2 21.3227 5.56579 13.0843 
297 0 2 20.0038 5.60476 13.6805 
298 0 2 18.7911 5.26091 12.78 
299 0 2 18.3935 6.30878 11.7729 
300 0 3 17.7691 5.95405 10.468 
301 0 2 18.4947 4.79138 9.93593 
302 0 1 4.20167 3.0722 13.9078 
303 0 2 3.56271 3.391 12.5654 
304 0 2 2.13236 2.87104 12.4563 
305 0 2 1.484 3.17064 11.1089 
306 0 2 0.123541 3.82861 11.1996 
307 0 2 23.1478 4.55371 9.93804 
308 0 2 21.9682 5.34924 10.4067 
309 0 2 20.8735 6.03806 9.63748 
310 0 3 19.8073 5.06813 9.29303 
311 0 2 20.3161 3.84429 8.57909 
312 0 1 5.3229 21.6515 9.33422 
313 0 2 3.87864 21.8248 9.77415 
314 0 2 3.01813 22.4204 8.67098 
315 0 2 1.8709 23.2564 9.23388 
316 0 2 1.44354 0.799477 8.22646 
317 0 2 0.099182 1.35111 8.68121 
318 0 2 23.0873 1.98105 7.43101 
319 0 2 21.721 2.52258 7.34401 
320 0 3 21.4079 3.94784 7.63855 
321 0 2 21.7899 5.22936 6.92875 
322 0 1 7.35303 9.54159 9.70804 
323 0 2 6.52921 10.2846 8.68605 
324 0 2 5.13359 9.76506 8.93664 
325 0 2 4.47167 9.82075 7.51074 
326 0 2 3.15225 9.05972 7.64151 
327 0 2 2.05164 8.76976 6.66322 
328 0 2 1.17173 7.76545 7.4438 
329 0 2 0.029926 7.11312 6.67273 
330 0 3 23.2426 5.69177 7.1369 
331 0 2 0.529731 4.57126 6.517 
332 0 1 8.81662 0.252892 11.0668 
333 0 2 7.37421 0.752062 11.0266 
334 0 2 7.31485 1.93656 10.0423 
335 0 2 6.48392 3.16262 10.4294 
336 0 2 6.05574 4.08006 9.27767 
337 0 2 4.60529 4.2595 9.67095 
338 0 2 3.36756 3.85315 8.94542 
339 0 2 2.33537 4.30608 8.02911 
340 0 3 2.02013 4.39138 6.57704 
341 0 2 2.58261 5.3958 5.61635 
342 0 1 21.6664 2.04537 19.5424 
343 0 2 22.4275 1.45136 20.7232 
344 0 2 22.5855 2.55909 21.7581 
345 0 2 0.061731 2.07696 22.8145 
346 0 2 0.381134 3.22298 0.240827 
347 0 2 1.39697 2.77816 1.30228 
348 0 2 1.53128 4.07214 2.07588 
349 0 2 1.96122 4.10661 3.51854 
350 0 3 1.96014 5.46807 4.19939 
351 0 2 2.76893 6.53897 3.51226 
352 0 1 1.81339 16.7138 22.8805 
353 0 2 1.81354 15.2938 23.3843 
354 0 2 1.41143 14.1047 22.4796 
355 0 2 1.62618 12.9971 23.4833 
356 0 2 1.43429 11.481 0.013834 
357 0 2 1.51858 11.1012 1.53201 
358 0 2 1.9801 9.68733 1.63968 
359 0 2 1.89517 8.89392 2.93156 
360 0 3 2.15034 7.4518 2.52056 
361 0 1 1.24544 6.86392 1.47042 
362 1 1 8.43847 22.5898 1.14506 
363 1 2 9.40947 21.8717 2.08101 
364 1 2 8.67176 21.4862 3.35993 
365 1 2 9.66804 21.1209 4.45059 
366 1 2 8.9479 20.8734 5.76765 
367 1 2 9.91241 20.348 6.80807 
368 1 2 9.22752 19.7172 8.00812 
369 1 2 10.0909 19.5739 9.26975 
370 1 3 9.99471 18.2044 9.91912 
371 1 1 9.89228 17.0105 8.98429 
372 1 2 11.1483 17.9897 10.8849 
373 1 2 10.7417 16.9502 11.9366 
374 1 2 11.7889 17.1107 13.0408 
375 1 2 12.708 15.7926 12.6112 
376 1 2 10.8139 15.7658 15.2232 
377 1 2 11.8263 14.7263 15.7811 
378 1 2 10.9265 14.879 17.0163 
379 1 2 10.6997 13.832 18.0332 
380 1 2 9.39049 14.1541 18.7332 
381 1 1 8.92256 13.1203 19.7387 
382 2 1 8.57511 20.5278 17.6393 
383 2 2 9.10643 20.6014 19.0575 
384 2 2 9.07026 19.2943 19.8422 
385 2 2 9.41116 19.6482 21.2981 
386 2 2 9.48016 18.4199 22.1739 
387 2 2 9.91538 18.6559 0.120573 
388 2 2 10.121 17.2572 0.672647 
389 2 2 10.6593 17.0594 2.04917 
390 2 3 11.6908 15.9815 2.20919 
391 2 1 11.4346 14.5333 1.93852 
392 2 2 12.7426 16.3091 3.2126 
393 2 2 12.6164 15.5183 4.48795 
394 2 2 13.0099 16.3767 5.72008 
395 2 2 12.2934 15.6174 6.77284 
396 2 2 12.0877 14.8768 8.12704 
397 2 2 13.4587 12.5777 9.04509 
398 2 2 12.4594 13.2372 6.81185 
399 2 2 13.7454 11.5718 11.2223 
400 2 2 12.4242 10.9025 10.7391 
401 2 1 13.841 10.4766 11.2806 
402 3 1 4.46558 0.977705 10.801 
403 3 2 4.34167 1.32358 9.33157 
404 3 2 5.27431 1.21949 8.16041 
405 3 2 4.6998 1.87064 6.89298 
406 3 2 5.24559 3.22463 6.38001 
407 3 2 4.69615 3.39547 4.96103 
408 3 2 5.24607 4.436 3.96308 
409 3 2 4.62225 4.0151 2.63493 
410 3 3 5.22735 3.94345 1.25803 
411 3 1 5.14685 2.42049 0.946371 
412 3 2 4.37439 4.65839 0.208557 
413 3 3 4.94328 4.93761 22.3089 
414 3 2 5.73468 3.77125 21.7532 
415 3 2 5.86428 3.53436 20.2704 
416 3 2 6.75449 4.4873 19.5393 
417 3 2 6.85353 4.09239 18.0937 
418 3 2 7.44339 5.27584 17.3219 
419 3 2 6.93566 4.87177 15.9446 
420 3 2 6.57939 6.0938 15.1327 
421 3 1 5.94269 5.63975 13.8199 
422 3 2 3.7501 5.28992 21.3969 
423 3 2 4.22708 6.18713 20.2565 
424 3 2 3.25614 6.2254 19.0898 
425 3 2 4.10585 6.55408 17.8619 
426 3 2 3.33789 7.50642 16.9799 
427 3 2 4.00294 7.71284 15.6311 
428 3 2 3.02734 8.60778 14.9045 
429 3 2 3.5592 9.12137 13.5922 
430 3 2 2.32975 9.79146 12.9675 
431 3 1 2.76194 9.9593 11.533 
432 4 1 21.6467 14.5295 18.6647 
433 4 2 20.0399 17.1574 21.0715 
434 4 2 20.5643 17.2548 19.595 
435 4 2 19.9888 18.6545 19.2994 
436 4 2 20.389 19.3923 18.0846 
437 4 2 20.9298 20.786 18.215 
438 4 2 20.5833 21.2316 16.8188 
439 4 2 21.1957 22.5903 16.547 
440 4 3 20.5991 23.2212 15.3033 
441 4 1 20.5231 22.3388 14.0671 
442 4 2 19.1061 23.2667 15.5763 
443 4 3 18.2343 0.74024 14.8995 
444 4 2 18.7111 1.36911 13.7036 
445 4 2 20.0165 1.677 12.8621 
446 4 2 20.3196 2.93016 11.2369 
447 4 2 19.7533 1.52071 11.4409 
448 4 2 0.136958 11.4802 10.2897 
449 4 2 22.8966 9.38012 10.4176 
450 4 2 22.7372 7.99737 11.2697 
451 4 1 22.7455 15.1286 7.64476 
452 4 2 19.6954 3.52415 16.2359 
453 4 2 18.8821 2.13057 16.5138 
454 4 2 22.1669 10.0662 15.6949 
455 4 2 21.51 8.78253 15.9146 
456 4 2 20.9687 9.28625 14.3047 
457 4 2 21.7606 10.056 13.1625 
458 4 2 21.9927 11.5302 13.6179 
459 4 2 22.3719 12.4894 12.5558 
460 4 2 22.0154 13.9557 12.7844 
461 4 1 21.8844 14.5701 11.3865 
462 5 1 15.4307 15.8266 14.5596 
463 5 2 15.7129 16.1687 13.0975 
464 5 2 16.5578 17.4106 12.9309 
465 5 2 16.7138 18.1399 11.6457 
466 5 2 17.5585 17.6496 10.4866 
467 5 2 17.6258 18.7775 9.47875 
468 5 2 18.5848 18.5585 8.31153 
469 5 2 18.2118 19.5977 7.25631 
470 5 3 18.5749 19.3954 5.79637 
471 5 1 18.9148 17.9777 5.36563 
472 5 2 17.5634 20.1299 4.91328 
473 5 3 17.8989 20.6129 3.51273 
474 5 2 18.6071 19.5621 2.6951 
475 5 2 18.5381 19.5776 1.20333 
476 5 2 19.2273 20.6583 0.470573 
477 5 2 18.4369 20.8147 22.6776 
478 5 2 19.2415 21.9486 22.067 
479 5 2 18.7984 22.0599 20.6313 
480 5 2 19.7798 23.0222 19.9919 
481 5 1 19.0382 0.082311 18.7978 
482 5 2 16.7213 21.3373 2.84574 
483 5 2 17.2227 22.4339 1.90956 
484 5 2 16.2772 22.9026 0.827876 
485 5 2 17.0204 0.266192 23.3422 
486 5 2 16.091 0.968917 22.3815 
487 5 2 16.9461 1.4598 21.2345 
488 5 2 16.1217 2.54126 20.5657 
489 5 2 17.0008 3.00166 19.4355 
490 5 2 16.3257 4.1659 18.7059 
491 5 1 16.4489 3.30886 17.4381 
492 6 1 10.5584 5.80328 3.40927 
493 6 2 11.6532 5.23361 4.27644 
494 6 2 11.21 4.00506 5.03038 
495 6 2 12.3053 3.2729 5.81301 
496 6 2 11.8246 1.87763 5.83219 
497 6 2 12.4481 0.731853 6.50192 
498 6 2 11.9672 22.8851 6.03028 
499 6 2 12.6494 21.7786 6.81422 
500 6 3 13.3623 20.7072 6.03939 
501 6 1 13.164 20.596 4.57319 
502 6 2 14.6959 20.1509 6.50704 
503 6 3 15.0012 18.6823 6.18637 
504 6 2 15.037 18.2187 4.75453 
505 6 2 16.0616 17.1293 4.48302 
506 6 2 15.4587 15.7783 4.16129 
507 6 2 16.0808 14.4409 4.45496 
508 6 2 14.8724 13.5534 4.14119 
509 6 2 15.1584 12.1752 4.57644 
510 6 2 13.9543 11.268 4.66783 
511 6 1 14.8815 10.1096 4.34768 
512 6 2 15.4791 17.7794 7.29062 
513 6 3 15.9098 16.1047 6.84772 
514 6 2 16.8761 15.9028 7.89079 
515 6 2 17.9387 15.1428 7.11236 
516 6 2 19.1154 14.4955 7.83136 
517 6 2 19.0161 12.9693 7.92505 
518 6 2 19.9869 11.9641 8.56098 
519 6 2 19.4048 10.4472 8.56834 
520 6 2 19.6309 10.1355 10.0853 
521 6 1 19.8186 8.66938 10.4742 
522 6 2 12.9954 18.4181 8.5924 
523 6 2 12.1139 18.7525 7.62324 
524 6 2 19.601 12.1206 12.7408 
525 6 2 17.6333 12.5667 10.3148 
526 6 2 16.6178 12.6926 11.3474 
527 6 2 16.3098 11.5562 12.2833 
528 6 2 17.4005 10.6077 12.5189 
529 6 2 18.0714 10.0938 13.7541 
530 6 2 18.4966 8.74353 13.2746 
531 6 1 18.007 7.79852 14.3428 
532 7 1 23.3631 0.96727 4.75007 
533 7 2 23.3175 1.95364 3.62627 
534 7 2 22.8299 3.31217 3.97035 
535 7 2 22.117 4.15761 2.91392 
536 7 2 22.063 5.61182 3.43262 
537 7 2 21.6423 6.33799 2.15263 
538 7 2 21.8917 7.80761 2.36532 
539 7 2 21.9428 8.60682 1.05667 
540 7 3 22.2086 10.1011 1.09299 
541 7 1 22.3013 10.5665 2.49638 
542 7 2 21.8067 11.0208 23.3891 
543 7 3 22.342 12.4951 23.1987 
544 7 2 22.6613 13.1113 1.09488 
545 7 2 22.9855 14.5283 1.36003 
546 7 2 21.9563 15.6031 1.33436 
547 7 2 22.4295 16.8 0.575586 
548 7 2 21.2829 17.746 0.248145 
549 7 2 22.0953 18.8482 23.0726 
550 7 2 21.3678 19.6414 22.0282 
551 7 1 22.274 20.5789 21.2603 
552 7 2 21.596 13.8027 21.9122 
553 7 3 18.9363 13.2162 0.568728 
554 7 2 2.90686 15.9234 16.7087 
555 7 2 1.39976 15.9282 17.5568 
556 7 2 0.171603 16.7024 18.2933 
557 7 2 0.294183 18.2213 18.4049 
558 7 2 0.24188 18.4895 16.9157 
559 7 2 0.394497 19.9136 16.5333 
560 7 2 0.108456 19.8733 15.0402 
561 7 1 23.3427 21.2812 14.7703 
562 7 2 19.8509 13.6427 23.052 
563 7 2 20.0426 13.0959 1.0554 
564 7 2 18.0056 16.6197 15.1143 
565 7 2 18.4156 16.0749 16.4634 
566 7 2 20.0674 15.984 16.3553 
567 7 2 20.5721 17.4215 16.1165 
568 7 2 20.9191 17.9427 14.7507 
569 7 2 20.0135 19.0777 14.227 
570 7 2 20.7339 19.5569 12.9554 
571 7 1 19.8419 20.2606 11.9415 
572 8 1 14.2347 15.4599 10.5392 
573 8 2 15.2691 16.311 9.66739 
574 8 2 10.1635 12.5054 14.1983 
575 8 2 11.2818 13.318 13.1886 
576 8 2 12.8361 12.8536 13.5959 
577 8 2 12.909 11.3838 14.0685 
578 8 2 11.9819 10.7047 15.0287 
579 8 2 11.9735 9.18596 15.7861 
580 8 3 10.57 9.42479 16.2426 
581 8 1 17.7691 5.02534 15.4598 
582 8 2 12.1047 8.28145 16.2894 
583 8 3 12.1304 6.93491 17.3694 
584 8 2 13.2806 6.00203 17.0322 
585 8 2 13.3015 4.57548 17.6712 
586 8 2 12.1574 3.60065 17.3043 
587 8 2 12.3337 2.38311 18.2075 
588 8 2 10.9763 1.72124 18.4241 
589 8 2 11.1166 0.782264 19.6121 
590 8 2 9.78231 0.158337 19.9672 
591 8 1 9.92518 22.9546 21.311 
592 8 2 12.021 7.00188 18.9289 
593 8 3 11.5977 5.63557 19.6057 
594 8 2 12.2055 5.1404 20.8998 
595 8 2 11.9885 3.6727 21.3338 
596 8 2 11.2592 3.69341 22.6687 
597 8 2 10.8872 2.36763 23.2993 
598 8 2 10.6272 2.69344 1.26724 
599 8 2 10.2676 1.40871 1.97591 
600 8 2 10.2894 1.69721 3.43644 
601 8 1 9.76403 0.614529 4.33184 
602 8 2 10.1475 5.29334 19.3694 
603 8 2 9.25394 6.13004 20.3026 
604 8 2 8.96712 5.15919 21.431 
605 8 2 8.41535 5.67042 22.727 
606 8 2 8.31688 4.46863 0.174746 
607 8 2 8.11938 5.00577 1.56951 
608 8 2 8.22541 4.14886 2.79624 
609 8 2 7.55888 2.79856 2.92347 
610 8 2 7.48903 2.44109 4.41347 
611 8 1 6.80304 1.07623 4.57208 
612 9 1 16.5974 7.85645 6.84375 
613 9 2 19.9656 3.85842 4.88504 
614 9 2 20.3872 2.62936 4.80673 
615 9 2 15.2904 13.3388 7.61903 
616 9 2 15.9504 12.0156 7.18072 
617 9 2 15.0502 10.5432 7.85763 
618 9 2 13.5837 9.97846 7.66182 
619 9 2 12.157 10.5763 7.66547 
620 9 3 10.882 10.7803 8.43705 
621 9 1 9.98584 9.73799 8.95618 
622 9 2 9.90445 11.9591 8.43072 
623 9 3 9.29908 12.6134 9.68563 
624 9 2 9.11982 11.9958 11.0575 
625 9 2 8.00219 12.5436 11.9752 
626 9 2 6.67497 12.0739 11.424 
627 9 2 5.44676 12.8208 11.8718 
628 9 2 4.52102 12.8313 10.6866 
629 9 2 3.2307 13.5394 11.0446 
630 9 2 2.34497 13.9897 9.88314 
631 9 1 1.17034 14.662 10.5568 
632 9 2 9.0433 14.1038 9.53297 
633 9 3 7.59797 14.5644 9.64011 
634 9 2 7.29444 15.8575 10.3698 
635 9 2 5.84315 16.1107 10.7782 
636 9 2 5.41135 17.5658 10.5407 
637 9 2 3.882 17.6005 10.4838 
638 9 2 3.30111 18.9842 10.2892 
639 9 2 1.7847 18.9421 10.0979 
640 9 2 1.18972 20.3309 10.0655 
641 9 1 23.2574 20.4494 9.60159 
642 9 2 6.68884 13.9934 8.58992 
643 9 2 6.356 14.801 7.36426 
644 9 2 5.4114 15.9205 7.71354 
645 9 2 4.83152 16.7053 6.57222 
646 9 2 4.35818 18.0176 7.15879 
647 9 2 3.81827 18.9237 6.0662 
648 9 2 2.85313 19.8167 6.82012 
649 9 2 2.03918 20.6537 5.85414 
650 9 2 0.962293 21.3206 6.6904 
651 9 1 23.2879 21.7242 5.84032 
ITEM: TIMESTEP
10
ITEM: NUMBER OF ATOMS
651
ITEM: BOX BOUNDS pp pp pp
0.0000000000000000e+00 2.3503699999999998e+01
0.0000000000000000e+00 2.3503699999999998e+01
0.0000000000000000e+00 2.3503699999999998e+01
ITEM: ATOMS id mol type x y z 
1 0 1 1.2491 16.5115 6.09872 
2 0 2 1.04099 15.3413 5.13971 
3 0 2 2.17615 15.2313 4.13703 
4 0 2 2.25679 13.8833 3.40898 
5 0 2 3.40905 13.8953 2.3969 
6 0 2 4.01082 12.5355 1.94262 
7 0 2 4.23275 12.5393 0.431325 
8 0 2 4.18705 11.4621 22.8688 
9 0 3 4.08095 11.6673 21.3527 
10 0 2 3.40317 12.7704 20.5316 
11 0 1 5.2764 11.1032 20.6027 
12 0 1 2.98836 0.563171 19.4951 
13 0 2 3.27052 22.7067 18.8674 
14 0 2 2.72591 21.5529 19.714 
15 0 2 3.14204 20.2656 19.0056 
16 0 2 2.91539 18.9949 19.8156 
17 0 2 3.65405 17.829 19.1281 
18 0 2 3.4214 16.5455 19.9125 
19 0 2 4.09197 15.2067 19.5265 
20 0 3 3.84846 14.2226 20.6605 
21 0 2 4.85578 14.4303 21.7224 
22 0 1 6.64229 0.881769 21.1505 
23 0 2 6.58783 23.3398 20.0442 
24 0 2 5.93903 22.3507 20.9893 
25 0 2 6.16331 20.9369 20.5591 
26 0 2 5.49244 20.1999 21.6924 
27 0 2 5.82072 18.7618 21.4097 
28 0 2 5.05848 18.0809 22.5423 
29 0 2 5.30597 16.7085 22.0569 
30 0 3 4.74635 15.5161 22.7728 
31 0 2 5.57135 15.1679 0.520038 
32 0 1 15.9908 16.6117 20.4597 
33 0 2 14.7325 16.4424 19.6496 
34 0 2 13.1993 16.2933 19.9429 
35 0 2 12.9882 16.3769 18.8134 
36 0 2 10.2702 14.4961 22.6765 
37 0 2 10.1628 15.2685 21.6723 
38 0 2 8.95172 15.0427 22.5519 
39 0 2 7.56362 15.3539 22.8016 
40 0 3 6.94179 14.4466 0.386756 
41 0 2 6.8672 13.0174 23.3426 
42 0 1 17.0203 10.5777 23.3976 
43 0 2 15.6231 10.0773 0.0517092 
44 0 2 14.596 10.8104 0.82362 
45 0 2 13.4402 10.6867 23.3707 
46 0 2 12.3075 11.4535 0.478554 
47 0 2 11.1892 11.2833 22.9853 
48 0 2 9.9985 11.697 0.296373 
49 0 2 8.85595 11.7687 22.7825 
50 0 3 7.67984 11.8251 0.241107 
51 0 2 7.05272 10.4715 23.3731 
52 0 1 16.2522 6.4509 4.47594 
53 0 2 15.5887 7.49024 3.65826 
54 0 2 14.1244 7.11079 3.44241 
55 0 2 13.5683 7.80484 2.21341 
56 0 2 12.1671 8.33472 2.33211 
57 0 2 11.3395 8.30435 1.07217 
58 0 2 9.94389 8.77752 1.41949 
59 0 2 9.09989 8.87108 0.155362 
60 0 3 7.69098 9.2818 0.569101 
61 0 2 6.91514 7.98945 0.526045 
62 0 1 19.807 6.99316 21.0349 
63 0 2 20.9038 7.60662 21.8763 
64 0 2 22.283 7.04276 21.5584 
65 0 2 23.3746 8.0919 21.7803 
66 0 2 1.24272 7.45688 21.9047 
67 0 2 2.3754 8.45829 22.1651 
68 0 2 3.43801 7.77393 23.0224 
69 0 2 4.59471 8.57992 0.0294578 
70 0 3 5.50737 7.91961 1.05596 
71 0 2 5.34905 8.50089 2.45597 
72 0 1 2.09024 6.13656 12.567 
73 0 2 2.64526 6.98193 11.4641 
74 0 2 2.53779 6.661 10.0049 
75 0 2 3.98612 7.00267 9.52673 
76 0 2 4.35049 6.5743 8.09346 
77 0 2 5.57878 7.05483 7.32826 
78 0 2 5.00876 7.07488 5.91408 
79 0 2 5.1643 8.2217 4.93667 
80 0 3 5.84143 7.70554 3.66167 
81 0 2 7.3481 7.5375 3.8679 
82 0 1 7.03129 18.3603 5.08364 
83 0 2 7.04929 17.3705 3.90824 
84 0 2 6.84511 15.9898 4.48756 
85 0 2 7.0171 14.7585 3.63628 
86 0 2 6.9659 13.5632 4.5852 
87 0 2 7.29676 12.2917 3.85075 
88 0 2 7.36888 11.0988 4.79249 
89 0 2 7.79098 9.99171 3.83985 
90 0 3 8.06718 8.69881 4.57348 
91 0 2 9.53524 8.38037 4.6736 
92 0 1 11.3193 18.4716 4.73321 
93 0 2 9.9853 17.8672 4.96469 
94 0 2 9.84147 16.7156 5.91947 
95 0 2 9.72779 15.4767 5.05676 
96 0 2 9.9302 14.117 5.67487 
97 0 2 10.3942 13.1627 4.56432 
98 0 2 10.6927 11.8176 5.17313 
99 0 2 10.732 10.6375 4.24525 
100 0 3 10.5991 9.37745 5.09142 
101 0 2 11.971 8.67651 5.28037 
102 0 1 9.13748 2.20593 13.5321 
103 0 2 8.601 3.01106 12.4146 
104 0 2 9.58989 3.48449 11.3422 
105 0 2 9.16868 4.72155 10.5645 
106 0 2 9.15545 4.70229 9.04481 
107 0 2 8.95899 6.15677 8.56777 
108 0 2 9.78694 6.49496 7.37377 
109 0 2 10.7821 7.67947 7.32317 
110 0 3 12.035 7.59797 6.35775 
111 0 2 13.3038 6.60923 6.69244 
112 0 1 11.6811 0.972005 15.0951 
113 0 2 11.8886 2.25535 14.2948 
114 0 2 12.6105 2.01885 12.9803 
115 0 2 12.8431 3.1914 12.0292 
116 0 2 14.0751 2.99658 11.1201 
117 0 2 14.3233 4.15828 10.1329 
118 0 2 13.6701 4.19066 8.7514 
119 0 2 13.8745 5.20429 7.56575 
120 0 3 12.7996 5.55975 7.31364 
121 0 2 18.2313 5.1822 6.87265 
122 0 1 22.5478 22.2072 2.28861 
123 0 2 21.1189 22.7108 2.14081 
124 0 2 20.7382 23.3592 3.45414 
125 0 2 19.4061 0.54905 3.2946 
126 0 2 18.6523 0.460562 4.67055 
127 0 2 17.7345 1.64548 4.47948 
128 0 2 17.286 2.31944 5.73504 
129 0 2 16.7208 3.7379 5.93275 
130 0 3 17.1779 4.6114 7.14793 
131 0 2 16.6739 3.48208 8.24791 
132 0 1 2.10438 21.8955 12.8238 
133 0 2 1.19089 23.003 12.2845 
134 0 2 23.2455 22.5926 11.9977 
135 0 2 22.4608 0.0785945 11.1419 
136 0 2 21.2389 22.9374 10.4173 
137 0 2 20.6766 0.2104 9.17367 
138 0 2 19.1378 0.317751 9.0478 
139 0 2 18.5568 1.59646 8.41005 
140 0 3 17.0759 2.01506 8.48146 
141 0 2 16.4073 0.746496 8.08504 
142 0 1 7.84717 21.9123 13.956 
143 0 2 9.31702 21.4843 14.0697 
144 0 2 9.99778 21.6866 12.7274 
145 0 2 11.5146 21.6868 12.7058 
146 0 2 12.0998 22.7454 11.7785 
147 0 2 13.2887 22.2292 10.9107 
148 0 2 14.1691 23.238 10.1101 
149 0 2 14.639 22.812 8.70046 
150 0 3 15.0461 0.407841 7.63497 
151 0 2 15.3272 23.2447 6.21976 
152 0 1 17.7018 7.65599 23.0252 
153 0 2 16.9759 7.37267 0.814464 
154 0 2 17.5455 6.01008 1.19309 
155 0 2 16.3778 5.28732 1.76416 
156 0 2 16.5758 4.04993 2.57253 
157 0 2 15.2276 3.9454 3.34405 
158 0 2 15.2166 2.47667 3.539 
159 0 2 14.6214 1.81514 4.73927 
160 0 3 15.0784 0.377761 4.82419 
161 0 2 14.3242 23.0305 3.85889 
162 0 1 14.5296 7.44157 21.3088 
163 0 2 13.6443 7.603 22.5401 
164 0 2 14.3696 6.29009 22.7882 
165 0 2 13.6961 5.39711 0.263326 
166 0 2 14.3167 4.0347 23.4715 
167 0 2 13.6241 3.223 1.02533 
168 0 2 13.8984 1.74741 0.900183 
169 0 2 13.2168 1.05212 2.061 
170 0 3 13.8386 23.2507 2.44592 
171 0 2 12.7985 22.191 2.08259 
172 0 1 13.5517 17.4087 15.8811 
173 0 2 12.8201 18.5516 16.5519 
174 0 2 13.8485 19.1222 17.5697 
175 0 2 12.9898 19.623 18.7257 
176 0 2 13.6983 19.6516 20.0674 
177 0 2 12.671 20.1852 21.0578 
178 0 2 13.4746 20.7607 22.1999 
179 0 2 12.5964 21.4022 23.2584 
180 0 3 13.2586 21.1199 1.10267 
181 0 2 12.884 19.6927 1.55745 
182 0 1 21.8644 14.1909 4.33214 
183 0 2 20.7163 15.1505 4.09536 
184 0 2 19.2868 14.7945 3.74869 
185 0 2 19.1365 15.7786 2.56726 
186 0 2 17.7364 16.1807 2.43002 
187 0 2 17.2156 17.1585 1.43507 
188 0 2 15.8765 17.7542 1.82992 
189 0 2 15.1995 18.8151 1.04959 
190 0 3 13.7104 18.5116 1.03042 
191 0 2 13.1604 17.5733 23.4255 
192 0 1 19.0537 9.19956 2.61739 
193 0 2 19.1384 10.4174 1.7003 
194 0 2 18.4033 11.4132 2.54403 
195 0 2 17.4549 12.6011 2.5953 
196 0 2 16.3901 12.9146 1.58108 
197 0 2 16.2655 14.1741 0.776213 
198 0 2 15.0997 15.0059 0.981168 
199 0 2 15.1408 15.9215 23.2309 
200 0 3 13.6767 16.1391 23.2411 
201 0 2 12.9631 14.9257 22.662 
202 0 1 22.3288 10.3011 19.7841 
203 0 2 20.8293 10.2118 19.5834 
204 0 2 19.9503 10.5245 20.7796 
205 0 2 19.2241 11.7913 20.395 
206 0 2 17.8538 12.0662 20.9234 
207 0 2 17.3265 13.4503 20.645 
208 0 2 15.8231 13.6333 20.6583 
209 0 2 14.9483 13.2186 21.822 
210 0 3 13.557 13.8208 21.7717 
211 0 2 12.4821 13.21 20.9068 
212 0 1 6.95313 8.615 12.5514 
213 0 2 7.337 8.79938 13.9776 
214 0 2 8.19507 9.94986 14.4692 
215 0 2 7.88008 9.97695 16.0157 
216 0 2 8.54175 11.0428 16.9757 
217 0 2 9.29815 10.5724 18.3387 
218 0 2 10.8169 11.0172 18.4517 
219 0 2 11.6723 11.0997 19.7032 
220 0 3 12.7567 12.1892 19.8324 
221 0 2 13.5681 12.7332 18.6553 
222 0 1 8.91861 5.42986 13.6465 
223 0 2 10.3586 5.47307 14.0538 
224 0 2 10.2474 7.01375 14.0893 
225 0 2 10.0186 7.90702 12.7248 
226 0 2 9.76836 7.70396 12.3254 
227 0 2 15.5843 9.61981 20.0388 
228 0 2 15.0574 9.87314 19.897 
229 0 2 15.1005 10.822 18.8058 
230 0 3 14.4492 11.7282 17.9112 
231 0 2 16.0588 12.4635 17.91 
232 0 1 3.53077 13.0142 17.0322 
233 0 2 2.25841 12.4253 16.4697 
234 0 2 1.07419 12.5532 17.4093 
235 0 2 23.4461 12.2061 16.4964 
236 0 2 22.177 12.244 17.3172 
237 0 2 20.8296 12.3462 16.6092 
238 0 2 19.7439 12.6851 17.5974 
239 0 2 18.5999 12.0021 17.0134 
240 0 3 17.4033 11.6416 17.8065 
241 0 2 17.6579 10.1721 18.0666 
242 0 1 23.0157 2.2002 14.2009 
243 0 2 23.1492 1.6413 15.6669 
244 0 2 0.0432595 0.963615 15.3024 
245 0 2 20.986 7.06325 18.1732 
246 0 2 21.0644 6.29175 17.8065 
247 0 2 19.5099 5.85158 17.636 
248 0 2 18.2253 6.75072 17.9801 
249 0 2 18.2774 8.03689 17.1651 
250 0 3 17.2759 9.13595 17.0692 
251 0 2 15.8989 8.94983 16.4812 
252 0 1 20.3368 17.1941 10.8568 
253 0 2 19.7588 16.6392 12.1621 
254 0 2 18.9584 15.3316 12.0643 
255 0 2 19.105 14.8213 13.4633 