LAMMPS (21 Jul 2020)
Reading data file ...
  orthogonal box = (0.0000000 0.0000000 0.0000000) to (23.503700 23.503700 23.503700)
  4 by 4 by 7 MPI processor grid
  reading atoms ...
  651 atoms
  scanning bonds ...
  2 = max bonds/atom
  scanning angles ...
  3 = max angles/atom
  scanning dihedrals ...
  4 = max dihedrals/atom
  reading bonds ...
  641 bonds
  reading angles ...
  687 angles
  reading dihedrals ...
  722 dihedrals
Finding 1-2 1-3 1-4 neighbors ...
  special bond factors lj:    0.0      0.0      0.0     
  special bond factors coul:  0.0      0.0      0.0     
     3 = max # of 1-2 neighbors
     4 = max # of 1-3 neighbors
     8 = max # of 1-4 neighbors
    11 = max # of special neighbors
  special bonds CPU = 0.013 seconds
  read_data CPU = 0.050 seconds
Neighbor list info ...
  update every 1 steps, delay 0 steps, check yes
  max neighbors/atom: 50000, page size: 500000
  master list distance cutoff = 16
  ghost atom cutoff = 16
  binsize = 8, bins = 3 3 3
  1 neighbor lists, perpetual/occasional/extra = 1 0 0
  (1) pair lj/cut/coul/cut, perpetual
      attributes: half, newton on
      pair build: half/bin/newton
      stencil: half/bin/3d/newton
      bin: standard
Setting up cg style minimization ...
  Unit style    : real
  Current step  : 0
WARNING: Bond/angle/dihedral extent > half of periodic box length (../domain.cpp:934)
Per MPI rank memory allocation (min/avg/max) = 14.05 | 14.14 | 14.52 Mbytes
Step Temp Press Density Pxx Pyy Pzz Pxy Pxz Pyz PotEng KinEng TotEng E_vdwl E_coul E_pair E_bond E_angle E_dihed E_impro E_mol E_tail Enthalpy Volume 
       0       373.15   -1870204.8    1.1703738   -1750362.6   -2193660.1   -1666591.6     199677.2    100898.57    371742.59    517271.79    722.98803    517994.78    9267.1212            0    9267.1212    497401.55    9927.6763    675.44412            0    508004.67    -35.39253    163855.78    12984.006 
      10       373.15   -1105519.5    1.1703738   -1009472.3   -1322253.2    -984833.1    130027.14    83854.119    227167.17    320074.47    722.98803    320797.46     6362.369            0     6362.369    305211.27    7843.7786    657.05567            0     313712.1    -35.39253    111458.04    12984.006 
      20       373.15   -531575.95    1.1703738   -462447.42   -669579.62   -462700.82    66561.695    74067.038    134668.37    183679.38    722.98803    184402.37    6634.9374            0    6634.9374    172062.91      4290.93    690.60225            0    177044.45    -35.39253    83743.994    12984.006 
      30       373.15    -112710.2    1.1703738   -83853.195   -189561.46   -64715.935    57706.532    45831.418    77818.115    87904.193    722.98803    88627.181    8199.0859            0    8199.0859    75820.458    3189.1359      695.513            0    79705.107    -35.39253    67284.558    12984.006 
      40       373.15    109182.27    1.1703738    134559.17    68161.486    124826.14    40469.537    19141.391    48857.266    39607.084    722.98803    40330.072    9064.6539            0    9064.6539    26579.429    3262.4486     700.5528            0     30542.43    -35.39253    61004.653    12984.006 
      50       373.15    169372.82    1.1703738    188606.75    133414.78    186096.94    7669.6734    10933.418    22243.639    19120.881    722.98803    19843.869    7385.8979            0    7385.8979    7927.1736    3093.8098    713.99996            0    11734.983    -35.39253    51916.037    12984.006 
      60       373.15    164226.93    1.1703738    181264.16    136177.27    175239.37    1241.2931   -3634.5729    12125.062     12775.87    722.98803    13498.858    5956.9503            0    5956.9503    3512.6675    2589.9121    716.34034            0    6818.9199    -35.39253    44596.609    12984.006 
      70       373.15    154629.62    1.1703738    170037.14    131104.87    162746.84   -1640.8242   -5723.5648    15930.996    9251.0725    722.98803    9974.0605    4937.8399            0    4937.8399    1272.4498     2325.425    715.35767            0    4313.2325    -35.39253    39254.479    12984.006 
      80       373.15    130630.72    1.1703738    140197.47     116008.7    135685.99   -742.11901    -3117.487    13710.853    6493.9489    722.98803    7216.9369     3579.867            0     3579.867    449.97932    1734.8403    729.26222            0    2914.0818    -35.39253    31952.962    12984.006 
      90       373.15    98196.912    1.1703738    103106.82    91388.009    100095.91    3473.2624   -3357.4798    9643.5377     4243.376    722.98803    4966.3641     2212.159            0     2212.159    225.62684    1096.5107    709.07947            0     2031.217    -35.39253    23560.775    12984.006 
     100       373.15    81465.324    1.1703738    84545.032    75827.344    84023.597    2886.1568   -3444.4892    8508.6095    3243.2184    722.98803    3966.2064    1613.8672            0    1613.8672    156.39069    796.97282    675.98775            0    1629.3513    -35.39253    19392.351    12984.006 
     110       373.15    69693.273    1.1703738    71170.444    65987.808    71921.568    2594.3943   -2692.0987    6277.6561    2484.4806    722.98803    3207.4687    1129.2578            0    1129.2578    110.43488    601.87397    642.91401            0    1355.2229    -35.39253    16404.476    12984.006 
     120       373.15    61656.263    1.1703738    62865.504    58614.094    63489.191    3175.0728   -1913.4073    5834.9444    1996.1215    722.98803    2719.1095     825.0662            0     825.0662     82.35159    483.43105    605.27262            0    1171.0553    -35.39253    14394.241    12984.006 
     130       373.15    56587.226    1.1703738    57166.032    54685.271    57910.376    3949.3673   -583.72843     3959.854     1639.694    722.98803     2362.682    586.28884            0    586.28884    65.057248    398.36191    589.98599            0    1053.4051    -35.39253    13077.949    12984.006 
     140       373.15     51101.64    1.1703738    52070.198    51026.055    50208.668    4263.6919     274.2733    4079.4573    1304.8537    722.98803    2027.8417    330.85664            0    330.85664    43.244648    341.15894    589.59343            0    973.99702    -35.39253    11704.367    12984.006 
     150       373.15    46247.635    1.1703738    45885.977    48771.082    44085.845    4034.3665   -138.74647    3169.0677    1068.1522    722.98803    1791.1402    169.19739            0    169.19739    30.970566    281.94167    586.04256            0     898.9548    -35.39253    10548.519    12984.006 
     160       373.15    43255.263    1.1703738    43788.827    45606.168    40370.794    3049.1143     261.5076    2612.8883    884.81338    722.98803    1607.8014    43.686731            0    43.686731    28.737271    238.49626    573.89312            0    841.12665    -35.39253    9798.5491    12984.006 
     170       373.15    41966.506    1.1703738    43120.515    43538.424    39240.578    2333.6846   -423.34764    1986.2074     763.1812    722.98803    1486.1692   -39.933076            0   -39.933076     28.31349    217.27301    557.52778            0    803.11427    -35.39253    9432.8799    12984.006 
     180       373.15    40485.128    1.1703738    41615.036    41527.024    38313.323    1975.7431   -1457.3724    1624.8167     665.3698    722.98803    1388.3578   -101.47427            0   -101.47427    27.023226    190.52612    549.29472            0    766.84407    -35.39253    9054.5572    12984.006 
     190       373.15    40085.355    1.1703738    41486.661    40724.591    38044.814    1195.7561   -614.18832     1434.052    603.42253    722.98803    1326.4106   -137.81838            0   -137.81838    27.076112    173.95738    540.20742            0    741.24091    -35.39253    8916.9096    12984.006 
     200       373.15    39486.147    1.1703738    40045.236    41070.542    37342.664    291.85622   -366.93853     618.6234    537.22593    722.98803     1260.214   -164.04687            0   -164.04687    25.706911    164.92305    510.64284            0     701.2728    -35.39253     8737.248    12984.006 
     210       373.15    38490.562    1.1703738    39112.629    39644.724    36714.334    711.91853    488.11424    590.75726    483.27161    722.98803    1206.2596   -193.30884            0   -193.30884    23.428856    158.50283    494.64876            0    676.58045    -35.39253    8494.7712    12984.006 
     220       373.15    38214.609    1.1703738    38561.872    39299.761    36782.195    1403.0327    291.00199    481.59301    434.64135    722.98803    1157.6294   -229.53989            0   -229.53989    26.109891    154.59411    483.47724            0    664.18124    -35.39253     8393.887    12984.006 
     230       373.15    37741.875    1.1703738    38439.832     39496.34    35289.452    1299.6149   -378.55443     357.0555    387.24442    722.98803    1110.2325   -259.32596            0   -259.32596    27.496545    157.74228    461.33156            0    646.57039    -35.39253    8256.9737    12984.006 
     240       373.15    37273.464    1.1703738    38084.695    38446.847     35288.85    1167.9349   -316.44285    1083.5992    349.32033    722.98803    1072.3084   -276.22301            0   -276.22301    24.485628     147.9124    453.14532            0    625.54334    -35.39253    8130.3521    12984.006 
     250       373.15    36056.274    1.1703738    36994.842    37109.068    34064.913    987.02755   -437.19168    1277.1997    320.56507    722.98803    1043.5531    -299.1016            0    -299.1016    22.593519    146.48537    450.58778            0    619.66667    -35.39253    7871.1118    12984.006 
     260       373.15    35591.005    1.1703738    36357.381    36594.195    33821.439    885.22697   -467.73616    1959.1033    290.38004    722.98803    1013.3681   -324.58392            0   -324.58392    23.227501     144.1415    447.59495            0    614.96395    -35.39253    7752.8242    12984.006 
     270       373.15     34700.76    1.1703738    34896.468    36069.386    33136.427    1350.9316   -237.13143    1885.2216    262.44052    722.98803    985.42854   -343.92959            0   -343.92959     21.42197    138.38272    446.56541            0     606.3701    -35.39253    7556.3093    12984.006 
     280       373.15    34070.333    1.1703738    34297.039    34814.335    33099.625      971.766   -49.492528    2108.8914    241.32365    722.98803    964.31168   -355.95195            0   -355.95195    19.368678    129.93535    447.97158            0     597.2756    -35.39253    7415.8157    12984.006 
     290       373.15    33714.195    1.1703738    33673.427    34346.148    33123.009    1031.3983   -348.73413    1868.2224     222.0221    722.98803    945.01013   -372.70542            0   -372.70542    19.434344    125.60652    449.68666            0    594.72752    -35.39253    7329.0764    12984.006 
     300       373.15    33284.713    1.1703738    32759.904     34369.55    32724.686     1123.829   -391.22393     1862.666    206.12514    722.98803    929.11317   -381.07888            0   -381.07888    18.487596     121.5726    447.14382            0    587.20402    -35.39253    7231.8535    12984.006 
     310       373.15    32510.968    1.1703738    31887.966    33385.163    32259.774    1280.4035   -259.61757         2223    193.72593    722.98803    916.71396   -391.01031            0   -391.01031    17.128064    119.89714    447.71104            0    584.73624    -35.39253    7072.9391    12984.006 
     320       373.15    32603.001    1.1703738    32198.576    33016.678    32593.749    1276.3801   -216.34847    2265.3489    183.06093    722.98803    906.04896   -396.92574            0   -396.92574    18.056028    123.73548    438.19516            0    579.98667    -35.39253    7079.7013    12984.006 
     330       373.15    32427.499    1.1703738    31989.002    33012.215    32281.279    1200.7906   -103.38601     2236.102    173.45556    722.98803    896.44359   -404.68008            0   -404.68008    17.963677    121.54759    438.62438            0    578.13564    -35.39253    7036.8631    12984.006 
     340       373.15      32148.8    1.1703738     31779.84    32794.726    31871.835    1267.6196   -116.09731     2365.138    166.90854    722.98803    889.89657   -408.44141            0   -408.44141    17.203475     118.0816    440.06488            0    575.34995    -35.39253    6977.5422    12984.006 
     350       373.15    31994.122    1.1703738    32176.128    32498.655    31307.583    1196.7149    78.691069    2408.4393    161.19803    722.98803    884.18606   -412.71343            0   -412.71343    16.985513    115.31032    441.61563            0    573.91146    -35.39253    6942.5421    12984.006 
     360       373.15    31979.221    1.1703738    32314.265    32363.085    31260.312    1307.2581    48.181842     2498.479    154.70875    722.98803    877.69678   -416.86843            0   -416.86843    17.464696    115.35605    438.75644            0    571.57719    -35.39253    6933.2311    12984.006 
     370       373.15    31801.907    1.1703738    32313.925    32286.143    30805.653    1214.7001   -28.258199    2510.7568    149.13693    722.98803    872.12496   -418.31226            0   -418.31226    16.646051    117.56028    433.24286            0    567.44919    -35.39253    6894.0834    12984.006 
     380       373.15    31730.432    1.1703738    32340.674    32194.712    30655.911    1054.9079   -188.45331    2696.7329    144.99461    722.98803    867.98264   -419.46254            0   -419.46254    16.337817    118.48465    429.63469            0    564.45716    -35.39253    6876.4068    12984.006 
     390       373.15    31751.249    1.1703738    32508.973    31926.045     30818.73    1110.9476   -269.29052    2618.5015     141.2565    722.98803    864.24453   -419.26483            0   -419.26483    16.536516    117.98576    425.99906            0    560.52134    -35.39253    6876.6106    12984.006 
     400       373.15    31647.126    1.1703738    32752.638    31666.328    30522.411    1145.5722   -267.53862    2696.4635    137.28791    722.98803    860.27594   -418.98944            0   -418.98944    16.369579    117.75774    422.15004            0    556.27735    -35.39253    6852.9253    12984.006 
     410       373.15    31796.647    1.1703738    32886.575    31931.509    30571.857    1066.0737   -394.04264    2569.7388    133.09198    722.98803       856.08   -420.36724            0   -420.36724     16.84889    117.16838    419.44194            0    553.45921    -35.39253    6877.0425    12984.006 
     420       373.15    31796.218    1.1703738    32991.037    31984.754    30412.863    1025.6559   -384.03327    2518.1233     128.5291    722.98803    851.51713    -421.3382            0    -421.3382     16.90686    116.26054     416.6999            0     549.8673    -35.39253    6872.3983    12984.006 
     430       373.15    31798.925    1.1703738    32875.191    32101.728    30419.854    1057.2466    -471.1114    2535.8984    123.36881    722.98803    846.35684   -421.88931            0   -421.88931    17.121495     115.1816    412.95503            0    545.25813    -35.39253    6867.7506    12984.006 
     440       373.15    31721.063    1.1703738    32727.812    32120.198    30315.179    839.63985   -299.53179    2660.6948    118.30771    722.98803    841.29573   -424.42737            0   -424.42737    17.138276    113.89216    411.70464            0    542.73508    -35.39253    6847.9457    12984.006 
     450       373.15    31640.579    1.1703738      32679.8    31953.621    30288.316    831.98616   -415.32135    2428.4237    113.65813    722.98803    836.64615   -427.88486            0   -427.88486     17.39374    112.42894    411.72031            0    541.54299    -35.39253    6828.0558    12984.006 
     460       373.15    31762.712    1.1703738    32630.712    32051.213     30606.21    847.91484   -329.86466    2313.3734    110.88233    722.98803    833.87035   -427.55665            0   -427.55665    17.683992    110.50826    410.24673            0    538.43897    -35.39253    6848.4069    12984.006 
     470       373.15    31745.618    1.1703738    32657.816    32064.028    30515.011    676.91998   -306.73037    2292.1581    108.89493    722.98803    831.88295   -428.93006            0   -428.93006     17.64323    109.87886     410.3029            0    537.82499    -35.39253    6843.1827    12984.006 
     480       373.15    31634.923    1.1703738    32621.982    31978.919    30303.869    706.12866    -360.6836    2358.1945    107.60982    722.98803    830.59785   -429.63906            0   -429.63906    17.343788    110.08466    409.82044            0    537.24889    -35.39253    6820.9366    12984.006 
     490       373.15    31623.948    1.1703738    32571.029    31997.808    30303.007    793.41085    -386.0059    2423.5233    106.78141    722.98803    829.76944   -431.12281            0   -431.12281    17.455384    109.97253    410.47631            0    537.90422    -35.39253    6818.0299    12984.006 
     500       373.15    31609.947    1.1703738    32591.467    31930.855    30307.519    844.35763   -383.97678    2472.2329      106.198    722.98803    829.18602   -431.20439            0   -431.20439    17.464935    108.92716    411.01029            0    537.40239    -35.39253    6814.7953    12984.006 
     510       373.15    31518.554    1.1703738    32527.785    31818.178    30209.699    821.86491   -421.96843    2481.9704    105.79903    722.98803    828.78705   -431.59786            0   -431.59786    17.277059    108.81239    411.30744            0    537.39688    -35.39253    6797.0903    12984.006 
     520       373.15     31529.89    1.1703738    32484.051    31857.461     30248.16    815.80946   -456.16947    2434.2108    105.48484    722.98803    828.47287   -431.97042            0   -431.97042     17.28842    108.91496    411.25188            0    537.45526    -35.39253    6798.9227    12984.006 
     530       373.15    31545.218    1.1703738    32481.434     31816.14    30338.078    795.01959   -448.11232    2389.5183    105.21918    722.98803    828.20721   -432.45382            0   -432.45382    17.328426    108.44911    411.89546            0      537.673    -35.39253    6801.5594    12984.006 
     540       373.15    31540.716    1.1703738    32417.818    31888.584    30315.747    784.55067    -467.1169    2421.9795      104.979    722.98803    827.96702   -432.45461            0   -432.45461    17.242848    107.95367    412.23709            0    537.43361    -35.39253    6800.4669    12984.006 
     550       373.15    31495.113    1.1703738    32358.988    31892.814    30233.535    794.52189   -500.37387    2431.2739      104.781    722.98803    827.76902   -432.75517            0   -432.75517    17.176482    108.05694    412.30275            0    537.53617    -35.39253    6791.6334    12984.006 
     560       373.15    31498.904    1.1703738    32346.752    31884.327    30265.633    806.46165   -510.30271      2412.15    104.60293    722.98803    827.59095   -433.34703            0   -433.34703    17.210122    107.83319    412.90665            0    537.94996    -35.39253    6792.1732    12984.006 
     570       373.15    31470.974    1.1703738    32328.985    31816.292    30267.644    813.23507   -520.46121    2366.6075    104.44142    722.98803    827.42945   -433.76905            0   -433.76905    17.169793    107.37498     413.6657            0    538.21047    -35.39253     6786.723    12984.006 
     580       373.15    31432.288    1.1703738    32306.373    31737.951    30252.541    797.51422   -516.96558     2338.882     104.2989    722.98803    827.28693   -434.17981            0   -434.17981    17.112481    107.17848    414.18775            0    538.47871    -35.39253     6779.255    12984.006 
     590       373.15    31391.306    1.1703738    32271.507    31701.726    30200.684    777.94937   -516.30452    2312.7122    104.16004    722.98803    827.14807   -434.99853            0   -434.99853    17.111625    107.01693    415.03001            0    539.15857    -35.39253    6771.3558    12984.006 
     600       373.15    31387.884    1.1703738    32255.519    31711.386    30196.746     750.5771   -509.34334    2283.6585    104.03908    722.98803     827.0271   -435.24967            0   -435.24967    17.112682    106.67075    415.50532            0    539.28875    -35.39253    6770.5868    12984.006 
     610       373.15    31365.464    1.1703738     32234.52    31674.334    30187.537    724.10752   -513.88992    2254.1357    103.94964    722.98803    826.93767   -435.55182            0   -435.55182    17.106833    106.71959    415.67503            0    539.50146    -35.39253     6766.252    12984.006 
     620       373.15    31342.334    1.1703738    32202.882     31672.28     30151.84     719.5995   -496.03663     2248.194    103.86802    722.98803    826.85604   -436.33744            0   -436.33744    17.129285    106.78056    416.29562            0    540.20546    -35.39253    6761.7905    12984.006 
     630       373.15    31330.964    1.1703738    32193.513     31657.78    30141.599    709.20921   -481.35028    2215.4057    103.80026    722.98803    826.78829   -436.90342            0   -436.90342    17.171472    107.01952    416.51269            0    540.70368    -35.39253    6759.5698    12984.006 
     640       373.15    31289.156    1.1703738    32165.287     31611.44    30090.741    656.02353    -469.0708    2182.7215    103.70151    722.98803    826.68954   -437.35345            0   -437.35345    17.108136    107.02695    416.91988            0    541.05496    -35.39253    6751.5543    12984.006 
     650       373.15    31117.195    1.1703738    31955.325    31519.031    29877.229    566.24362   -462.17093    2159.9261    102.97617    722.98803     825.9642   -438.25985            0   -438.25985    16.807854    108.00074    416.42743            0    541.23603    -35.39253    6718.2667    12984.006 
     660       373.15    31131.874    1.1703738    31908.964    31586.867     29899.79    518.99977   -379.78896    2100.0923    101.88473    722.98803    824.87276   -439.27587            0   -439.27587    16.977551    109.53677    414.64628            0     541.1606    -35.39253    6719.9548    12984.006 
     670       373.15    31054.984    1.1703738    31816.205    31608.416     29740.33    567.70504   -352.43224     2042.994    100.84349    722.98803    823.83151   -440.51767            0   -440.51767    16.903641    111.21658    413.24094            0    541.36116    -35.39253    6704.3538    12984.006 
     680       373.15    31105.363    1.1703738    31749.729    31728.057    29838.304    533.14762   -323.64525    2064.3626    99.715082    722.98803    822.70311   -440.18989            0   -440.18989    16.959161    111.21838    411.72743            0    539.90497    -35.39253    6712.7652    12984.006 
     690       373.15    31108.687    1.1703738    31711.377    31669.637    29945.045    479.50976   -296.39684    2017.4966     98.89817    722.98803     821.8862   -440.87362            0   -440.87362    16.963937     111.7427    411.06515            0    539.77179    -35.39253    6712.5776    12984.006 
     700       373.15    31145.304    1.1703738    31735.845    31719.012    29981.055    470.35221     -288.782    2043.2213    98.402217    722.98803    821.39024   -441.11747            0   -441.11747    17.007739       112.95    409.56194            0    539.51968    -35.39253    6719.0154    12984.006 
     710       373.15    31123.255    1.1703738    31748.392    31705.047    29916.325    427.51024   -331.45241    2062.1839    97.973095    722.98803    820.96112   -441.67881            0   -441.67881     17.01792    113.99516    408.63883            0    539.65191    -35.39253    6714.4111    12984.006 
     720       373.15    31125.625    1.1703738    31789.232    31700.146    29887.496    439.28998   -382.96947     2087.973    97.614674    722.98803     820.6027   -441.73592            0   -441.73592    17.058825    114.74186     407.5499            0    539.35059    -35.39253    6714.5014    12984.006 
     730       373.15    31095.201    1.1703738    31758.765    31690.838    29835.998    455.87688   -384.75415    2090.5466    97.323261    722.98803    820.31129   -441.58948            0   -441.58948    17.029999    115.19364    406.68911            0    538.91274    -35.39253     6708.449    12984.006 
     740       373.15    31079.272    1.1703738    31749.185    31672.786    29815.847    443.82381   -387.45199    2117.6463    97.069762    722.98803    820.05779   -441.15843            0   -441.15843    16.960083    115.21321     406.0549            0    538.22819    -35.39253    6705.1794    12984.006 
     750       373.15    31090.108    1.1703738    31731.542    31701.405    29837.377    439.39689    -398.0349     2177.478    96.761265    722.98803    819.74929   -440.61774            0   -440.61774    16.862568    115.51415    405.00229            0      537.379    -35.39253    6706.9227    12984.006 
     760       373.15    31087.191    1.1703738    31700.143    31773.859    29787.569    463.28106   -392.17694    2243.7124    96.153625    722.98803    819.14165   -440.17765            0   -440.17765    16.879425    115.18936    404.26249            0    536.33128    -35.39253    6705.7626    12984.006 
     770       373.15    31101.053    1.1703738    31730.153    31805.193    29767.814    512.50822   -384.72891     2263.658    95.359933    722.98803    818.34796   -440.26178            0   -440.26178     16.92052    114.34617    404.35502            0    535.62171    -35.39253    6707.5939    12984.006 
     780       373.15     31070.24    1.1703738    31692.039    31808.481    29710.199    485.17314   -360.90071    2271.0494    94.601595    722.98803    817.58962   -440.79262            0   -440.79262    16.886071    113.35831    405.14984            0    535.39422    -35.39253    6701.0007    12984.006 
     790       373.15    31096.239    1.1703738    31730.249    31856.936    29701.532    466.98671   -330.31488    2265.4705    93.949754    722.98803    816.93778   -441.01385            0   -441.01385    16.953261    112.29578    405.71456            0     534.9636    -35.39253    6705.2721    12984.006 
     800       373.15    31072.436    1.1703738    31852.795    31814.958    29549.554    472.55351   -307.54277    2311.6065    93.242715    722.98803    816.23074   -439.75229            0   -439.75229    16.774024    111.24668     404.9743            0      532.995    -35.39253    6700.0577    12984.006 
     810       373.15    31074.131    1.1703738     31954.86    31794.905    29472.629    461.69567   -313.57026    2332.8163    92.833316    722.98803    815.82134   -438.63132            0   -438.63132    16.665205    110.79707    404.00236            0    531.46464    -35.39253    6699.9694    12984.006 
     820       373.15    31114.746    1.1703738    31953.987    31866.501    29523.751    503.15918   -340.55953    2312.1933    92.485588    722.98803    815.47361   -438.81925            0   -438.81925    16.786846    110.65159     403.8664            0    531.30483    -35.39253    6707.3124    12984.006 
     830       373.15    31117.739    1.1703738    31905.307    31903.278    29544.633    501.70993   -321.68176    2289.9249    92.223107    722.98803    815.21113   -439.04967            0   -439.04967    16.783969    110.52244    403.96637            0    531.27278    -35.39253    6707.6168    12984.006 
     840       373.15    31135.553    1.1703738    31889.885    31948.306    29568.468    504.69472   -323.76212    2245.1691    91.983298    722.98803    814.97132   -438.79768            0   -438.79768    16.806246    110.06543     403.9093            0    530.78097    -35.39253    6710.7501    12984.006 
     850       373.15    31200.578    1.1703738    31939.183    31987.742    29674.808    516.30826   -363.86578    2167.3672    91.662211    722.98803    814.65024   -438.99435            0   -438.99435    17.030441    109.41631    404.20981            0    530.65656    -35.39253     6722.742    12984.006 
     860       373.15    31134.652    1.1703738    31837.698    31888.704    29677.554    549.32438   -419.23766    2099.2372     90.94827    722.98803     813.9363   -439.04325            0   -439.04325    16.922003     109.1294    403.94011            0    529.99152    -35.39253    6709.5444    12984.006 
     870       373.15     31158.05    1.1703738    31816.766    31843.739    29813.645    536.23539   -426.27221    2121.3303    90.318412    722.98803    813.30644   -438.94966            0   -438.94966    16.991883    108.95015    403.32604            0    529.26808    -35.39253    6713.3452    12984.006 
     880       373.15    31196.735    1.1703738    31872.795    31824.934    29892.477     501.3309   -394.22276    2136.9158    89.875463    722.98803    812.86349   -439.07009            0   -439.07009    17.104803    108.81395     403.0268            0    528.94556    -35.39253    6720.2276    12984.006 
     890       373.15    31201.085    1.1703738    31929.269     31777.38    29896.606    504.17951   -359.79107    2166.0683    89.566282    722.98803    812.55431   -439.09106            0   -439.09106    17.035034    108.88756    402.73475            0    528.65734    -35.39253    6720.7421    12984.006 
     900       373.15    31177.691    1.1703738    31887.279    31752.008    29893.788    496.57716   -335.59076    2201.0331    89.355899    722.98803    812.34392   -438.87961            0   -438.87961    16.923109    108.62004    402.69235            0    528.23551    -35.39253     6716.102    12984.006 
     910       373.15     31168.85    1.1703738    31843.531    31749.146    29913.872    488.99169   -299.93067    2194.6169    89.212767    722.98803    812.20079   -439.00062            0   -439.00062     16.95323    108.44953    402.81063            0    528.21339    -35.39253    6714.2846    12984.006 
     920       373.15     31174.84    1.1703738    31889.501    31743.436    29891.584    480.16151   -270.01334    2182.2618    89.107701    722.98803    812.09573   -439.17823            0   -439.17823    16.958863    108.52454    402.80252            0    528.28593    -35.39253    6715.3138    12984.006 
     930       373.15     31164.42    1.1703738    31908.805    31721.274     29863.18     483.2341   -266.03042    2185.4521    89.028117    722.98803    812.01614   -439.26784            0   -439.26784    16.963492    108.35925    402.97321            0    528.29595    -35.39253    6713.2611    12984.006 
     940       373.15    31122.418    1.1703738    31879.334    31681.172    29806.749     485.9423   -269.91082    2203.6734    88.963442    722.98803    811.95147   -439.68065            0   -439.68065    16.943214    108.34995    403.35093            0    528.64409    -35.39253    6705.2431    12984.006 
     950       373.15    31103.853    1.1703738    31860.051    31660.377    29791.132     485.4431   -267.77557    2216.9347    88.910201    722.98803    811.89823   -439.93324            0   -439.93324    16.910404    108.32137    403.61166            0    528.84344    -35.39253    6701.6744    12984.006 
     960       373.15     31104.05    1.1703738    31868.753    31643.388    29800.009    478.78055   -272.91307     2235.378    88.877291    722.98803    811.86532   -439.69221            0   -439.69221    16.888881     108.1452    403.53542            0     528.5695    -35.39253    6701.6788    12984.006 
     970       373.15    31099.882    1.1703738    31879.902    31615.366    29804.379    482.02223   -280.75883    2241.1158    88.850036    722.98803    811.83806   -439.33288            0   -439.33288    16.828736    107.83088     403.5233            0    528.18292    -35.39253    6700.8622    12984.006 
     980       373.15    31103.436    1.1703738    31898.115    31604.216    29807.978     484.1652   -273.36556    2231.2198    88.824192    722.98803    811.81222   -439.40739            0   -439.40739     16.83014    107.72128    403.68016            0    528.23159    -35.39253    6701.5094    12984.006 
     990       373.15    31102.353    1.1703738    31901.128    31598.613    29807.319     472.0615   -282.68653    2233.0656    88.806238    722.98803    811.79426   -439.61139            0   -439.61139    16.858414    107.76216    403.79705            0    528.41762    -35.39253    6701.2864    12984.006 
    1000       373.15    31095.224    1.1703738    31893.313    31584.735    29807.623    470.98595   -289.50635    2240.9444    88.793353    722.98803    811.78138   -439.66926            0   -439.66926    16.847739     107.7647    403.85017            0    528.46261    -35.39253    6699.9234    12984.006 
    1010       373.15     31093.14    1.1703738    31891.956    31572.172    29815.291    477.65689   -290.24229    2243.0181    88.782862    722.98803    811.77089   -439.63522            0   -439.63522    16.836181    107.73567    403.84622            0    528.41808    -35.39253    6699.5183    12984.006 
    1020       373.15    31097.442    1.1703738    31895.655    31563.187    29833.485    481.20569   -295.40497    2245.9877    88.775714    722.98803    811.76374   -439.51878            0   -439.51878    16.830311    107.69057    403.77362            0    528.29449    -35.39253    6700.3259    12984.006 
    1030       373.15    31099.059    1.1703738    31894.257    31556.479    29846.442    479.66152   -297.88933    2244.9773    88.769732    722.98803    811.75776   -439.42131            0   -439.42131    16.819645    107.65529    403.71611            0    528.19105    -35.39253    6700.6262    12984.006 
    1034       373.15    31094.831    1.1703738    31892.402    31549.388    29842.703     477.1974   -297.63623    2245.4004    88.767973    722.98803      811.756   -439.39852            0   -439.39852    16.812403    107.65025    403.70383            0    528.16649    -35.39253    6699.8237    12984.006 
Loop time of 0.596471 on 112 procs for 1034 steps with 651 atoms

99.7% CPU use with 112 MPI tasks x no OpenMP threads

Minimization stats:
  Stopping criterion = linesearch alpha is zero
  Energy initial, next-to-last, final = 
      517271.789108848   88.7679728860261   88.7679728860261
  Force two-norm initial, final = 45529.01043063585 0.9428627271819485
  Force max component initial, final = 8803.835404539324 0.14602665782942711
  Final line search alpha, max atom move = 8.648175990116895e-09 1.2628642361574669e-09
  Iterations, force evaluations = 1034 1992

MPI task timing breakdown:
Section |  min time  |  avg time  |  max time  |%varavg| %total
---------------------------------------------------------------
Pair    | 0.038119   | 0.094264   | 0.20272    |   9.7 | 15.80
Bond    | 0.000681   | 0.0024416  | 0.0053346  |   2.0 |  0.41
Neigh   | 0.005601   | 0.005696   | 0.005805   |   0.1 |  0.95
Comm    | 0.19591    | 0.30051    | 0.36128    |   5.6 | 50.38
Output  | 0.11234    | 0.1124     | 0.11272    |   0.0 | 18.84
Modify  | 0          | 0          | 0          |   0.0 |  0.00
Other   |            | 0.08116    |            |       | 13.61

Nlocal:        5.81250 ave          10 max           2 min
Histogram: 2 6 15 25 0 29 19 9 5 2
Nghost:        2534.14 ave        2607 max        2448 min
Histogram: 2 4 8 16 14 25 19 12 7 5
Neighs:        2478.44 ave        5690 max         834 min
Histogram: 7 22 21 27 14 11 8 1 0 1

Total # of neighbors = 277585
Ave neighs/atom = 426.39785
Ave special neighs/atom = 6.2980031
Neighbor list builds = 30
Dangerous builds = 0
System init for write_restart ...
Setting up Verlet run ...
  Unit style    : real
  Current step  : 0
  Time step     : 1.0
Per MPI rank memory allocation (min/avg/max) = 11.66 | 11.83 | 12.13 Mbytes
Step Temp Press Density Pxx Pyy Pzz Pxy Pxz Pyz PotEng KinEng TotEng E_vdwl E_coul E_pair E_bond E_angle E_dihed E_impro E_mol E_tail Enthalpy Volume 
       0       373.15    31094.831    1.1703738    31892.402    31549.388    29842.703     477.1974   -297.63623    2245.4004    88.767973    722.98803      811.756   -439.39852            0   -439.39852    16.812403    107.65025    403.70383            0    528.16649    -35.39253    6699.8237    12984.006 
    1000    1089.7658    37398.112    1.1703738    41065.789      38484.5    32644.046    2400.5205    1722.0917    1593.5938    2194.3529    2111.4501     4305.803   -13.495674            0   -13.495674    690.61465    766.28678    750.94714            0    2207.8486    -35.39253     11387.45    12984.006 
    2000    961.85066    42886.338    1.1703738    43046.432    42966.987    42645.595   -689.84988   -2749.3694   -1285.1185    1960.2252    1863.6112    3823.8364   -103.52141            0   -103.52141    632.68428    660.11306    770.94927            0    2063.7466    -35.39253    11944.725    12984.006 
    3000    1045.4023    44983.318    1.1703738    46083.287    42448.509    46418.158   -343.42993   -281.73828    4454.1623    1973.8221    2025.4946    3999.3167   -138.17853            0   -138.17853    621.32793    725.46311    765.20959            0    2112.0006    -35.39253    12517.286    12984.006 
    4000    1009.0005    45591.856    1.1703738    40742.815     44284.13    51748.624   -2100.8837    -2009.227    992.00592    2067.1884    1954.9653    4022.1537   -131.30269            0   -131.30269    666.45722    752.88095    779.15297            0    2198.4911    -35.39253    12655.355    12984.006 
    5000    958.14574    40337.529    1.1703738    41106.167    36810.531    43095.889   -960.44602    1615.9709     473.7042    2022.4081    1856.4328    3878.8409   -120.93571            0   -120.93571    670.20345    665.77072     807.3696            0    2143.3438    -35.39253    11517.091    12984.006 
    6000    982.59153    44680.747    1.1703738    46640.269    47454.256    39947.715    674.77009   -281.49643    2000.0944    2153.1319    1903.7972    4056.9291   -149.47399            0   -149.47399    709.31838    816.93861     776.3489            0    2302.6059    -35.39253    12517.604    12984.006 
    7000    942.68654    42879.312    1.1703738    43659.286     44008.96    40969.689    -2714.626   -424.57217    2233.0876    1961.6878    1826.4802     3788.168   -126.32691            0   -126.32691    640.37902    681.75803    765.87764            0    2088.0147    -35.39253    11907.726    12984.006 
    8000      964.892    40420.438    1.1703738    43468.518    36316.647     41476.15   -1523.6216     -2098.65   -4669.3341    1860.6694    1869.5039    3730.1732   -146.85033            0   -146.85033    592.47859    648.95826    766.08286            0    2007.5197    -35.39253    11384.123    12984.006 
    9000    1007.9846    41948.439    1.1703738    39323.074    44546.193    41976.051    2040.6965    3314.4909   -2308.6811    1952.6544    1952.9968    3905.6513   -202.64174            0   -202.64174    747.92778    649.14179    758.22658            0    2155.2962    -35.39253    11848.941    12984.006 
   10000    1000.2971    43486.591    1.1703738    48378.849    37104.552    44976.372    6913.8775     507.6497     153.2002    1957.9911    1938.1023    3896.0934   -130.47315            0   -130.47315    649.47089     671.9444    767.04897            0    2088.4643    -35.39253    12130.645    12984.006 
   11000    966.10194    41175.543    1.1703738    41876.666    38687.203    42962.761    3793.9246    2983.9527   -9.8170783    1901.6375    1871.8481    3773.4857   -192.63071            0   -192.63071    646.78779    683.65304     763.8274            0    2094.2682    -35.39253    11570.421    12984.006 
   12000    995.24618     44550.58    1.1703738    47498.146    40585.616    45567.979   -1335.9014    5980.7829    3872.3572    2061.7395    1928.3159    3990.0553   -87.404786            0   -87.404786    665.26807    716.22612    767.65005            0    2149.1442    -35.39253    12426.082    12984.006 
   13000    985.61479    44174.261    1.1703738    46853.479    44563.408    41105.897   -1607.3054    816.14128    -1073.946    1853.8388    1909.6548    3763.4936   -212.53581            0   -212.53581     648.8978    662.21854    755.25827            0    2066.3746    -35.39253    12128.261    12984.006 
   14000     1010.525    41207.842    1.1703738    39285.267    40895.599    43442.659   -1417.1924   -1322.6319   -2036.6455    1972.6097    1957.9191    3930.5288   -192.10425            0   -192.10425    708.63723    690.10968    765.96708            0     2164.714    -35.39253     11733.58    12984.006 
   15000    1026.3863    43606.875    1.1703738    40512.709    45251.934    45055.983    2787.6277   -5157.6746    553.69463    1959.8744    1988.6507    3948.5251   -126.30651            0   -126.30651    643.50507    707.00127    735.67453            0    2086.1809    -35.39253    12205.854    12984.006 
   16000    964.39082    40332.456    1.1703738    41262.254    41024.791    38710.323    4441.8409   -2047.3237    1869.6233    1954.0973    1868.5328    3822.6301   -185.01956            0   -185.01956    618.95494     725.7265    794.43539            0    2139.1168    -35.39253     11459.92    12984.006 
   17000    1043.6916     40624.58    1.1703738    40990.762    40234.177      40648.8   -126.81852    2864.9356   -1668.4488    2005.4975    2022.1801    4027.6777   -168.65053            0   -168.65053    646.92003     761.8541    765.37394            0    2174.1481    -35.39253    11720.283    12984.006 
   18000    1068.2771    41960.617    1.1703738    42136.731    38726.263    45018.857    2225.4866    2192.3174    50.419407    1933.6914    2069.8152    4003.5067   -144.26235            0   -144.26235    577.30659    743.03617      757.611            0    2077.9538    -35.39253    11949.102    12984.006 
   19000    999.19883    40117.501    1.1703738    40900.231    38190.312    41261.959    1820.1518    7092.3188   -4990.5678    2017.7404    1935.9742    3953.7146   -188.80875            0   -188.80875    688.96444     769.4254     748.1593            0    2206.5491    -35.39253    11550.301    12984.006 
   20000    974.63823    40860.062    1.1703738     40350.15      38256.2    43973.836   -945.52686   -672.81292    1163.7525    1988.0003    1888.3874    3876.3878   -143.13809            0   -143.13809    660.81917    706.48775    763.83149            0    2131.1384    -35.39253    11613.584    12984.006 
   21000     987.9426     36597.62    1.1703738    32522.105    35463.265     41807.49   -2714.4542   -1251.2836   -797.17045    1900.4589     1914.165    3814.6239   -221.21874            0   -221.21874    682.11972     725.6238    713.93416            0    2121.6777    -35.39253    10744.691    12984.006 
   22000    1005.8278    45333.556    1.1703738    47529.365    42039.896    46431.407   -336.25856    1297.9763   -5330.8825    2018.5672    1948.8181    3967.3852   -183.04878            0   -183.04878    699.68204    730.92807    771.00583            0    2201.6159    -35.39253    12551.675    12984.006 
   23000     996.2842    41211.483    1.1703738    40359.182    41450.223    41825.045    4218.6964   -419.45063   -3441.4289    1950.1635    1930.3271    3880.4906   -223.79195            0   -223.79195    648.83835    796.14308    728.97404            0    2173.9555    -35.39253    11684.231    12984.006 
   24000    968.43179    43796.059    1.1703738    41994.922    43305.049    46088.207    1930.9734   -1158.0562   -286.90204    1946.6738    1876.3623    3823.0361   -171.57689            0   -171.57689     679.4032    659.22873    779.61881            0    2118.2507    -35.39253    12116.188    12984.006 
   25000    1017.6126    41963.696    1.1703738    37759.204    43118.083    45013.803   -4608.2937    2361.0157   -1137.2471    1979.2321    1971.6513    3950.8835   -176.54118            0   -176.54118    656.56493    719.77453    779.43384            0    2155.7733    -35.39253    11897.062    12984.006 
   26000    1030.8499    38870.137    1.1703738    40556.831    39726.605    36326.974    1438.2822   -105.29767   -5226.9437    2043.7591     1997.299    4041.0581   -144.24864            0   -144.24864    632.76119    805.34451    749.90206            0    2188.0078    -35.39253    11401.445    12984.006 
   27000    1015.4719    41142.991    1.1703738    41814.261    41739.211    39875.501    2268.3974   -3339.7309    635.06244    1842.1038    1967.5038    3809.6076   -200.50943            0   -200.50943    565.04223    705.99562    771.57538            0    2042.6132    -35.39253    11600.379    12984.006 
   28000    1006.3863    39380.364    1.1703738    41337.559    33810.972     42992.56   -4671.5834   -959.31482   -1819.1981    1986.3648    1949.9001    3936.2649    -128.8392            0    -128.8392    640.49503    714.29353    760.41539            0     2115.204    -35.39253    11393.268    12984.006 
   29000    992.46408    44749.883    1.1703738    42754.081    50645.829    40849.739   -2497.5884    1314.1805    1627.2616    1837.9984    1922.9255    3760.9239   -202.55917            0   -202.55917    598.56952    677.39592    764.59215            0    2040.5576    -35.39253    12234.691    12984.006 
   30000    1018.9006    42847.751    1.1703738    41502.575     43688.85    43351.827   -357.64531   -1870.4567   -858.81146    1939.3622    1974.1469    3913.5092   -149.28107            0   -149.28107    607.88024    741.66745    739.09562            0    2088.6433    -35.39253    12027.091    12984.006 
   31000    976.72266    39292.456    1.1703738    42220.967    40903.461    34752.939     2592.896   -923.02969   -1093.8879    1948.4356    1892.4261    3840.8617   -148.39556            0   -148.39556    613.16472    735.93903    747.72744            0    2096.8312    -35.39253    11281.219    12984.006 
   32000    974.15828    37682.201    1.1703738    33231.795    39157.555    40657.254    4584.2438   -525.78117   -2123.5181    1953.9984    1887.4575    3841.4559    -133.7335            0    -133.7335    602.26357    732.49282    752.97546            0    2087.7319    -35.39253    10976.897    12984.006 
   33000    962.87187    46016.749    1.1703738    44933.415    48934.781    44182.052   -50.794311   -1073.5387    1344.0147    2053.4256    1865.5898    3919.0154   -167.65509            0   -167.65509    683.02722     782.1927    755.86077            0    2221.0807    -35.39253    12632.674    12984.006 
   34000    1015.8396    38938.844    1.1703738    38878.676      40558.8    37379.056    3470.1335   -4636.4731   -1539.4881    2059.5785    1968.2162    4027.7947   -175.97638            0   -175.97638    694.89685    781.26367    759.39433            0    2235.5548    -35.39253    11401.192    12984.006 
   35000    995.29959    41452.737    1.1703738    36140.972    42412.831    45804.408   -1350.4159   -2397.8812    531.68943    1980.4177    1928.4194    3908.8371   -203.35689            0   -203.35689    660.03157    755.72793    768.01511            0    2183.7746    -35.39253    11758.261    12984.006 
   36000    984.98085    40446.885    1.1703738    47004.162    35202.422     39134.07     3672.214   -1476.8844    5240.4623    1953.8219    1908.4265    3862.2484   -204.52144            0   -204.52144    637.96706    764.31857    756.05772            0    2158.3433    -35.39253    11521.206    12984.006 
   37000    1009.0246    37935.029    1.1703738     41089.94    40242.109    32473.037    536.80647    -1683.022    543.76934    1795.6865    1955.0119    3750.6984    -183.0022            0    -183.0022    612.15617    681.12944    685.40305            0    1978.6887    -35.39253    10934.015    12984.006 
   38000    1030.7057     38053.79    1.1703738    36366.238    38504.261     39290.87    832.17123   -1310.9798    1473.6767    1926.1147    1997.0197    3923.1344   -196.92617            0   -196.92617    631.13524    731.62614    760.27948            0    2123.0409    -35.39253    11128.939    12984.006 
   39000    952.06675     41967.46    1.1703738    41938.741    42837.243    41126.395   -490.28009   -625.02748    1158.2802     2010.128    1844.6546    3854.7826   -125.34927            0   -125.34927      684.934    657.88378    792.65954            0    2135.4773    -35.39253    11801.674    12984.006 
   40000    1002.5835    41035.667    1.1703738    41279.796    38911.113     42916.09    2665.6203   -2835.2332    -93.51907     2017.899    1942.5321    3960.4312   -187.21759            0   -187.21759    727.17116    714.14357     763.8019            0    2205.1166    -35.39253     11730.88    12984.006 
   41000    983.50198    44114.849    1.1703738    47643.422     40095.83    44605.294    3402.2175    4305.0718   -2958.1662     1954.735    1905.5612    3860.2962   -145.84572            0   -145.84572    647.09219    706.27878    747.20977            0    2100.5807    -35.39253    12213.814    12984.006 
   42000    973.33049    40594.591    1.1703738    39528.987    39427.687      42827.1   -91.687173   -1117.6775   -73.293464    1945.0091    1885.8537    3830.8627   -196.91723            0   -196.91723    650.52102    762.81267     728.5926            0    2141.9263    -35.39253     11517.79    12984.006 
   43000    996.99423    40810.506    1.1703738    39925.885    41024.195    41481.437    2657.7368   -64.621242    527.59252    1897.3382    1931.7028     3829.041   -186.81604            0   -186.81604    637.06382    669.40757    777.68286            0    2084.1542    -35.39253    11556.853    12984.006 
   44000    1025.3867    42761.367    1.1703738    40568.363    36157.683    51558.055    1702.2964   -755.37823   -1017.1177    1967.0912    1986.7139    3953.8051   -149.90959            0   -149.90959    670.61637    708.98231    737.40215            0    2117.0008    -35.39253    12051.029    12984.006 
   45000    981.67366    42336.079    1.1703738    46694.179    43932.168    36381.891    361.58876    747.30825    2168.7967    1979.4465    1902.0188    3881.4653   -157.08472            0   -157.08472    672.94146    678.93311     784.6567            0    2136.5313    -35.39253    11898.158    12984.006 
   46000    1014.6531    34911.776    1.1703738    31254.477    38385.776    35095.076    663.78704    -7182.033      4457.15    1995.6989    1965.9174    3961.6163   -211.13726            0   -211.13726    659.24012    736.34992    811.24617            0    2206.8362    -35.39253    10572.455    12984.006 
   47000    1043.5907    37694.873    1.1703738    40404.649    36409.358    36270.611   -74.221103    1400.5958   -528.27138    1980.9934    2021.9846    4002.9779   -172.39109            0   -172.39109    729.70897    681.47319    742.20229            0    2153.3844    -35.39253    11140.819    12984.006 
   48000    987.46316    38897.846    1.1703738    41228.307    36854.223    38611.009    4851.3542   -2801.4786    4257.6473    1989.1538    1913.2361    3902.3899   -172.01035            0   -172.01035    710.12295    684.09556    766.94567            0    2161.1642    -35.39253    11268.024    12984.006 
   49000     964.3454     40419.38    1.1703738    40690.333    35944.616    44623.193     1720.221   -1426.7033    3045.8542    1963.4041    1868.4448    3831.8489    -214.0422            0    -214.0422    673.45935    708.15747    795.82944            0    2177.4463    -35.39253    11485.598    12984.006 
   50000    951.14878    42625.295    1.1703738      44862.1    40484.185    42529.599     1668.708    2403.1332   -85.247908    2027.4354     1842.876    3870.3114   -173.43368            0   -173.43368    738.36438    712.38612    750.11858            0    2200.8691    -35.39253    11941.769    12984.006 
   51000     1021.777     36668.71    1.1703738    32130.397     37872.82    40002.914     401.4863    1553.6329    940.71929    2019.9885    1979.7201    3999.7086   -226.13249            0   -226.13249    693.03189    760.24341     792.8457            0     2246.121    -35.39253    10943.237    12984.006 
   52000    1006.8215    41878.766    1.1703738    42626.122    39091.921    43918.255    -923.3688    -225.6278   -665.74706     1938.455    1950.7434    3889.1984   -183.06259            0   -183.06259    667.67361    691.78724    762.05674            0    2121.5176    -35.39253    11819.295    12984.006 
   53000    1002.6935    37033.636    1.1703738    41137.383    34364.833    35598.692     419.5421    -5309.481   -1717.5056    1843.7837    1942.7453     3786.529   -256.67054            0   -256.67054    658.48218     687.5566    754.41545            0    2100.4542    -35.39253    10799.159    12984.006 
   54000    995.42513    46091.345    1.1703738    44776.115    48552.677    44945.241   -4192.0701     4722.117   -3217.2322    1968.0968    1928.6626    3896.7594    -202.3484            0    -202.3484     659.9217     729.9894     780.5341            0    2170.4452    -35.39253    12624.543    12984.006 
   55000    1037.3718    39981.821    1.1703738    39490.107     42151.13    38304.225    1107.2303   -5022.1528   -2508.2917     1903.287    2009.9354    3913.2225   -199.23985            0   -199.23985    678.65478    661.35906    762.51305            0    2102.5269    -35.39253    11484.116    12984.006 
   56000     993.0515    40641.195    1.1703738    42710.767    40993.712    38219.105    -2876.324   -4095.9182    -2961.343     1910.806    1924.0636    3834.8696   -218.25235            0   -218.25235    625.63704    729.85938    773.56191            0    2129.0583    -35.39253    11530.622    12984.006 
   57000    985.83102    41889.591    1.1703738    46792.836    38905.762    39970.176    -134.5984   -447.37006   -2591.1355     1988.919    1910.0738    3898.9928   -190.66145            0   -190.66145    684.86139    706.23222    788.48685            0    2179.5805    -35.39253    11831.139    12984.006 
   58000    1015.9242    40061.032    1.1703738    42426.927    40130.345    37625.824    944.83482   -1483.0378    1501.7144    2032.7154    1968.3801    4001.0955    -193.7123            0    -193.7123    692.33449    763.13297    770.96028            0    2226.4277    -35.39253    11586.989    12984.006 
   59000     968.4773     34623.19    1.1703738    32087.793    30741.748    41040.028    1011.3019    5372.7005    1241.5963     2001.861    1876.4505    3878.3115   -157.43857            0   -157.43857    623.24695    777.41875    758.63389            0    2159.2996    -35.39253    10434.504    12984.006 
   60000    1035.8139    42575.174    1.1703738    37991.904    45826.535    43907.083   -6548.3749   -3704.4574   -712.51902     2003.626    2006.9169    4010.5429   -212.76893            0   -212.76893    709.35776    726.76065    780.27652            0    2216.3949    -35.39253     12072.51    12984.006 
   61000    957.32883    41599.933    1.1703738    42947.387    37845.422    44006.989   -3133.6822   -1809.8304    1312.4235    1823.4955      1854.85    3678.3455   -236.56406            0   -236.56406    597.42602    708.82794    753.80564            0    2060.0596    -35.39253    11555.643    12984.006 
   62000    999.83427    43389.944    1.1703738    40128.956    42402.893    47637.982    631.36935   -4140.1922   -2384.1399    1902.0978    1937.2054    3839.3032   -211.28767            0   -211.28767    635.99865    720.55571    756.83108            0    2113.3854    -35.39253    12055.554    12984.006 
   63000    1054.7853    38679.225    1.1703738    36550.545    39907.506    39579.624    2092.8695    398.34188    3640.9751    1935.3884    2043.6746     3979.063   -154.76607            0   -154.76607    628.73987    739.54767    721.86692            0    2090.1545    -35.39253      11303.3    12984.006 
   64000    992.69476    45038.542    1.1703738    47732.143    41947.059    45436.424   -108.33064    4740.2494    3147.8861    1862.8961    1923.3724    3786.2686   -205.73866            0   -205.73866    650.67773    665.54422    752.41286            0    2068.6348    -35.39253    12314.695    12984.006 
   65000     990.6823    41909.326    1.1703738    40158.909    41522.673    44046.395    2034.7969   -3947.5889   -2962.4174    1872.1355    1919.4732    3791.6087   -249.89891            0   -249.89891    590.44952    777.32429     754.2606            0    2122.0344    -35.39253    11727.492    12984.006 
   66000    985.50029    40248.513    1.1703738     39958.62    35139.977    45646.942    3818.5167    3026.8559   -3147.7641    1935.5628     1909.433    3844.9958   -196.34764            0   -196.34764    684.97995    690.26246    756.66807            0    2131.9105    -35.39253     11466.39    12984.006 
   67000    1000.6954    38250.393    1.1703738    41102.094    35790.118    37858.966    4317.2106    2806.4543    307.68874    1885.0814    1938.8738    3823.9552    -212.4836            0    -212.4836    636.79161    722.89471    737.87871            0     2097.565    -35.39253    11066.989    12984.006 
   68000    1006.5716    37532.576    1.1703738    35373.743    33464.875     43759.11    2579.5031   -5456.8735   -1747.1573    1786.6684    1950.2592    3736.9277   -247.10292            0   -247.10292    644.47651    667.10706    722.18779            0    2033.7714    -35.39253    10844.036    12984.006 
   69000     976.5148    40407.377    1.1703738    38577.016    37259.085     45386.03   -85.933656   -1967.3839   -2893.6824    1897.4376    1892.0233    3789.4609   -246.29681            0   -246.29681    667.72059    733.51201    742.50178            0    2143.7344    -35.39253    11440.937    12984.006 
   70000    996.93333    38880.287    1.1703738    38564.432    42416.212    35660.217    755.04165   -2827.1286     4819.341    1832.2822    1931.5848     3763.867   -226.87281            0   -226.87281    663.30098     633.8628     761.9912            0     2059.155    -35.39253    11126.176    12984.006 
   71000    1021.0169    39945.627    1.1703738    39335.536    43984.635    36516.709    1704.0194    2396.0215   -1744.5334     1930.003    1978.2474    3908.2504   -204.29572            0   -204.29572    658.75218    729.77725     745.7693            0    2134.2987    -35.39253    11472.291    12984.006 
   72000     935.6725    36441.171    1.1703738    36706.527    35910.826    36706.161    864.25317   -5960.6302   -1478.3169    1935.5226    1812.8903    3748.4129   -213.99976            0   -213.99976    636.68958    728.66293    784.16983            0    2149.5223    -35.39253    10648.855    12984.006 
   73000    1044.8378    45604.304    1.1703738    46633.068    47064.047    43115.797   -4394.3948    2286.7627   -3260.9838    1935.9871     2024.401    3960.3881   -179.83458            0   -179.83458    683.05565    679.12367     753.6424            0    2115.8217    -35.39253    12595.947    12984.006 
   74000    1081.7006    37336.553    1.1703738    36109.224    36980.536    38919.899    1460.6688    133.51835   -1992.8458    1954.5792    2095.8235    4050.4028   -198.96538            0   -198.96538    698.02532    675.65051    779.86878            0    2153.5446    -35.39253    11120.393    12984.006 
   75000     978.2518    43673.906    1.1703738    39241.487    44537.919    47242.312    1599.1346      -2570.4   -385.71212    1951.7208    1895.3888    3847.1096   -178.27341            0   -178.27341    653.05537    724.68025    752.25855            0    2129.9942    -35.39253    12117.131    12984.006 
   76000    1044.6372    43089.607    1.1703738    45098.487    39267.463    44902.872   -6086.5055    948.95881   -74.424868     1930.291    2024.0123    3954.3033     -170.872            0     -170.872      661.162    740.79271    699.20832            0     2101.163    -35.39253    12113.683    12984.006 
   77000    962.77835    43431.413    1.1703738    37446.622    45743.195    47104.421    4829.9822    3443.1549   -1641.2081    1803.5613    1865.4086    3668.9699   -277.58434            0   -277.58434     664.9374    681.57156    734.63671            0    2081.1457    -35.39253    11893.073    12984.006 
   78000    946.55705    43206.387    1.1703738    39150.726    41717.606     48750.83    171.37828    727.05057   -3904.4061    1941.1199    1833.9794    3775.0993   -175.90863            0   -175.90863    673.59391    681.28717    762.14747            0    2117.0286    -35.39253    11956.592    12984.006 
   79000    1043.6641    37501.584    1.1703738    39168.398    32636.109    40700.245    701.27353   -3044.3423   -665.94142    1978.7019     2022.127    4000.8289   -183.29891            0   -183.29891    660.36462    744.17023      757.466            0    2162.0008    -35.39253    11102.069    12984.006 
   80000    981.81551    36668.345    1.1703738    43689.779    33238.939    33076.316     637.9391   -1221.7314   -2664.4212    1930.9359    1902.2936    3833.2294   -204.91237            0   -204.91237    659.86979    719.95759    756.02084            0    2135.8482    -35.39253    10776.689    12984.006 
   81000    982.40098    44159.326    1.1703738    44429.073    43512.179    44536.727    742.25203    1502.5849    -2666.308     1898.984     1903.428    3802.4119   -178.98754            0   -178.98754    623.67032    677.10033    777.20086            0    2077.9715    -35.39253    12164.352    12984.006 
   82000    1051.8488    45328.528    1.1703738    43592.402    44545.714     47847.47    686.40284   -4997.2097    1712.5677    1934.7267    2037.9849    3972.7116   -172.69819            0   -172.69819    656.74331    718.06012     732.6215            0    2107.4249    -35.39253     12556.05    12984.006 
   83000    969.74204    41605.657    1.1703738    40966.535    44660.948    39189.487   -2472.0804   -1067.1329   -2011.5346    1991.8421    1878.9009     3870.743   -246.16703            0   -246.16703    667.62604     805.1588    765.22425            0    2238.0091    -35.39253    11749.124    12984.006 
   84000    950.73137    38358.982    1.1703738    38158.271    41896.851    35021.823    1089.0515    3904.7543    3109.5455    1901.3652    1842.0673    3743.4325   -142.18413            0   -142.18413    559.96792    701.97046    781.61095            0    2043.5493    -35.39253    11007.028    12984.006 
   85000    969.78503    34909.389    1.1703738     33658.71    36539.508     34529.95   -1000.3478   -2954.0701    33.825658    1955.7041    1878.9842    3834.6883   -200.79944            0   -200.79944    632.67485    778.15836    745.67034            0    2156.5036    -35.39253    10445.075    12984.006 
   86000    1017.3768    39494.282    1.1703738    37793.229     37271.05    43418.566   -610.73584    2380.3148   -140.48681    1915.0238    1971.1946    3886.2184   -187.69587            0   -187.69587    622.05172    703.92338    776.74455            0    2102.7196    -35.39253    11364.793    12984.006 
   87000    1021.5652    35698.639    1.1703738      37188.8    36527.504    33379.613    4535.2125   -2229.8945    3047.9335    2001.6824    1979.3097    3980.9921   -149.42503            0   -149.42503     636.8436    757.98059    756.28324            0    2151.1074    -35.39253     10740.83    12984.006 
   88000    956.54295    36611.663    1.1703738    32700.357    37096.143    40038.488   -4068.3886    -1355.053    5368.2358    1864.2289    1853.3274    3717.5563   -211.48208            0   -211.48208    628.51618    676.28375    770.91108            0     2075.711    -35.39253    10650.282    12984.006 
   89000    941.88173    37439.997    1.1703738    40254.378    35567.897    36497.715    2883.9593   -990.47909    1012.5299    2040.9899    1824.9208    3865.9108   -158.84333            0   -158.84333    665.38809    773.01118    761.43397            0    2199.8332    -35.39253    10955.489    12984.006 
   90000    1005.1518    42442.076    1.1703738    41045.484    43526.615     42754.13   -529.87173   -152.01288   -2225.8635    2099.5719    1947.5083    4047.0802   -126.88392            0   -126.88392    682.25231    821.52695    722.67653            0    2226.4558    -35.39253    12083.844    12984.006 
   91000    978.92461    42697.087    1.1703738    47055.476    41067.303    39968.482   -1049.5013    438.86085    529.79753    1937.2812    1896.6924    3833.9736   -158.61584            0   -158.61584    654.72532    682.54478    758.62696            0    2095.8971    -35.39253    11919.026    12984.006 
   92000    1029.2241    37250.947    1.1703738    40465.973    29981.976    41304.893    1757.6195   -95.767129   -2929.2246    1966.7092     1994.149    3960.8582   -257.05325            0   -257.05325    677.65793    784.41428    761.69025            0    2223.7625    -35.39253    11014.638    12984.006 
   93000    1030.4592    40997.309    1.1703738     38808.26    38624.791    45558.875      3561.21   -1871.4335    1590.3934    1971.6081     1996.542      3968.15   -224.99526            0   -224.99526    696.28087    746.71912    753.60334            0    2196.6033    -35.39253    11731.335    12984.006 
   94000    1085.4952    45443.814    1.1703738    47037.868    44380.073    44913.501   -3306.7921   -3502.1351   -4402.7869    1947.0817    2103.1757    4050.2574   -219.86823            0   -219.86823    718.60639    658.09295    790.25058            0    2166.9499    -35.39253    12655.426    12984.006 
   95000    1008.9643    40343.263    1.1703738    41541.399    38317.039    41171.352    1155.6056     2656.653   -1505.6725    1964.1544    1954.8951    3919.0494   -238.28121            0   -238.28121     674.3705    756.95054    771.11453            0    2202.4356    -35.39253    11558.386    12984.006 
   96000    989.54612    37671.876    1.1703738    36739.641    38073.101    38202.886   -920.91661   -1690.8439   -1265.3645     1902.381    1917.2719    3819.6528   -161.36766            0   -161.36766    617.90059    722.82618    723.02186            0    2063.7486    -35.39253    10953.139    12984.006 
   97000    1007.9738    46252.907    1.1703738    45692.743    46987.491    46078.486   -2737.8325   -1663.3118   -1574.2841    1948.8224     1952.976    3901.7984   -149.12942            0   -149.12942    660.13754    691.99505    745.81924            0    2097.9518    -35.39253    12660.175    12984.006 
   98000    1023.1406    37651.196    1.1703738    39544.916    35888.838    37519.835    3355.1807     -1988.53    2793.3524    1968.8952     1982.362    3951.2572    -171.3649            0    -171.3649    617.84202    749.49266    772.92544            0    2140.2601    -35.39253    11080.828    12984.006 
   99000    972.54461    47939.501    1.1703738    47243.525    47038.805    49536.172   -2948.9215   -1810.1457   -2591.2303    1944.2114     1884.331    3828.5424   -207.00556            0   -207.00556    689.74772    728.73693    732.73234            0     2151.217    -35.39253     12906.29    12984.006 
  100000    978.67285    38768.446    1.1703738    43719.295    36396.717    36189.325    112.37653    841.91427    784.38229    1876.7775    1896.2046    3772.9821   -269.32012            0   -269.32012    642.18794    742.68905    761.22063            0    2146.0976    -35.39253    11114.113    12984.006 
  101000    981.81814    43603.481    1.1703738    43961.672    44145.324    42703.448    2996.7271    4489.9507    738.60984     1919.387    1902.2987    3821.6857   -273.27603            0   -273.27603    685.46814    715.44809    791.74676            0     2192.663    -35.39253    12078.371    12984.006 
  102000    973.78808    41981.662    1.1703738    41208.962    42644.415     42091.61   -589.25839   -4277.5062   -103.83472    1870.7275    1886.7402    3757.4678   -192.56269            0   -192.56269    620.66383     699.0404    743.58599            0    2063.2902    -35.39253    11707.049    12984.006 
  103000    957.52559    37577.207    1.1703738    33211.893    39130.164    40389.565    815.06071   -4035.0033    6139.0228    2000.3441    1855.2312    3855.5753   -172.08779            0   -172.08779    652.46544     742.0296    777.93682            0    2172.4319    -35.39253    10971.135    12984.006 
  104000    1023.3781    43518.764    1.1703738    44050.312    45325.864    41180.115      3327.74   -2519.3468   -2013.1058    1935.1527    1982.8221    3917.9749    -253.8663            0    -253.8663    639.67762    781.86384    767.47757            0     2189.019    -35.39253    12158.619    12984.006 
  105000    1048.0936    40315.691    1.1703738    41003.412    33904.022    46039.638    2742.5575   -1578.4079    3178.1746     1985.712    2030.7091    4016.4212   -151.56829            0   -151.56829    621.17767     727.0957    789.00696            0    2137.2803    -35.39253    11650.536    12984.006 
  106000    982.49742    42403.211    1.1703738    41796.762    37069.473    48343.396    1698.5254    -3539.569    1235.6281    1971.3497    1903.6148    3874.9645   -128.34331            0   -128.34331      650.203    709.10623    740.38374            0     2099.693    -35.39253    11904.369    12984.006 
  107000     967.9767    41650.663    1.1703738    43088.922    44173.277    37689.792    1729.9088   -3666.4521   -2411.8588    1914.5047    1875.4805    3789.9852   -213.79597            0   -213.79597    656.77701    720.54248    750.98119            0    2128.3007    -35.39253    11676.889    12984.006 
  108000    996.97446    38981.778    1.1703738    42571.288    38098.353    36275.693     393.1813   -4178.2737    2896.8799    1938.5196    1931.6645    3870.1841   -204.30072            0   -204.30072    646.83984    734.99435    760.98618            0    2142.8204    -35.39253    11251.711    12984.006 
  109000    1026.9183    43630.722    1.1703738    42719.068    40625.895    47547.204   -3073.5695    723.89364   -3934.9043    2031.8823    1989.6814    4021.5637   -151.52835            0   -151.52835    701.99421    719.83667    761.57974            0    2183.4106    -35.39253    12283.408    12984.006 
  110000    967.99345    42430.157    1.1703738    40848.902    46396.747    40044.823    1442.4793   -4346.3819    2402.6075    1978.7641     1875.513    3854.2771   -183.69154            0   -183.69154    656.32303    745.03533    761.09733            0    2162.4557    -35.39253    11888.784    12984.006 
  111000     1043.817    41615.999    1.1703738    42047.303    43547.626     39253.07    419.03356    2186.9856   -3094.3846    2022.3191    2022.4231    4044.7422   -168.72754            0   -168.72754    664.82723    758.80447    767.41496            0    2191.0467    -35.39253    11925.082    12984.006 
  112000    991.34831    39583.927    1.1703738    40205.306    38512.312    40034.161   -4083.8217    -2646.489   -2101.2652    1852.7484    1920.7637     3773.512   -213.21087            0   -213.21087    601.10515    698.23396    766.62014            0    2065.9592    -35.39253    11269.061    12984.006 
  113000    977.57711    40385.945    1.1703738    46132.964    38777.284    36247.586   -3557.3943   -5272.9374    296.14829    2008.9713    1894.0816    3903.0529   -174.55055            0   -174.55055    651.29017    764.27801     767.9537            0    2183.5219    -35.39253    11550.471    12984.006 
  114000    1004.4694    42698.843    1.1703738    45311.222    41548.859    41236.449    1167.7471    1186.7127    3751.4316    1835.1812    1946.1862    3781.3674   -227.57119            0   -227.57119    586.74493    716.77153    759.23589            0    2062.7523    -35.39253    11866.752    12984.006 
  115000    973.50804    42803.372    1.1703738    45488.941    44550.241    38370.933   -283.65355   -1268.1631   -964.76632    1972.5707    1886.1977    3858.7683   -191.86266            0   -191.86266    632.83622    760.14079    771.45632            0    2164.4333    -35.39253    11963.947    12984.006 
  116000    1009.5595    41450.255    1.1703738    44918.055    39941.875    39490.834    1960.0631   -1621.0721    3487.4257    2002.5983    1956.0483    3958.6466   -206.71391            0   -206.71391    687.41745    735.72134    786.17346            0    2209.3123    -35.39253    11807.601    12984.006 
  117000    983.62598    43511.598    1.1703738    40541.367    44489.354    45504.074    133.47555   -1641.1486   -810.32272    1902.9228    1905.8014    3808.7243   -180.68992            0   -180.68992    630.33445       723.77    729.50829            0    2083.6127    -35.39253    12048.011    12984.006 
  118000     1031.772     43094.64    1.1703738    45762.435    45901.393    37620.093   -1277.4288    1743.3552    2242.9742     1904.131    1999.0856    3903.2166     -182.181            0     -182.181    629.63799    669.34463    787.32937            0     2086.312    -35.39253    12063.549    12984.006 
  119000     1020.497    37520.295    1.1703738    37328.474    37748.446    37483.965   -1729.2471   -6170.4163   -1321.7143    2029.3923    1977.2401    4006.6324   -193.38581            0   -193.38581    721.49418    723.22433    778.05961            0    2222.7781    -35.39253    11111.416    12984.006 
  120000    1009.2442    44176.144    1.1703738    45492.272    41561.193    45474.968    4388.6519    -2237.974    1380.8144     1919.773    1955.4374    3875.2104   -181.81219            0   -181.81219     689.8033    672.83442    738.94747            0    2101.5852    -35.39253    12240.335    12984.006 
  121000     966.8403    38096.458    1.1703738    35867.499    40554.175    37867.701    -1639.346    553.69008    -2548.792    1903.8443    1873.2787    3777.1231   -193.63023            0   -193.63023    629.32467    720.00134    748.14856            0    2097.4746    -35.39253    10991.008    12984.006 
  122000     1013.947    37998.928    1.1703738    34375.138    40869.235    38752.412   -3086.0342   -3486.4025    1196.2035     1841.022    1964.5492    3805.5712   -167.66708            0   -167.66708    595.09559    724.34095    689.25251            0     2008.689    -35.39253    11000.988    12984.006 
  123000    1037.4603    43010.201    1.1703738     42879.95    43478.941    42671.711     4181.608    3591.7356   -988.06573    1905.1285    2010.1068    3915.2353   -230.38933            0   -230.38933    678.17846     729.8851    727.45432            0    2135.5179    -35.39253    12059.579    12984.006 
  124000    979.50746    44757.743    1.1703738    42057.311    47124.425    45091.493    4512.2242   -518.00929   -1772.9299    1919.3699    1897.8217    3817.1916   -207.69618            0   -207.69618    659.33127    695.82056    771.91431            0    2127.0661    -35.39253    12292.447    12984.006 
  125000    1034.6641    38533.246    1.1703738    33090.304    46250.585    36258.848     701.5446   -1138.7389   -246.56242    1920.3718    2004.6891    3925.0609   -181.00358            0   -181.00358    674.97349    688.30752    738.09433            0    2101.3753    -35.39253    11221.655    12984.006 
  126000    1014.8382    38694.509    1.1703738    38752.387    39793.402    37537.737   -250.76535   -232.97174    1348.1608    1996.0145     1966.276    3962.2905   -175.72512            0   -175.72512    600.77851    816.29563    754.66549            0    2171.7396    -35.39253    11289.421    12984.006 
  127000    969.41892    39806.107    1.1703738    40631.056    37147.128    41640.137    1715.3666    2240.0283    5193.0814    2001.1491    1878.2749     3879.424   -151.98476            0   -151.98476    657.54439    760.00055    735.58897            0    2153.1339    -35.39253    11417.045    12984.006 
  128000    930.63366     42423.33    1.1703738    39043.604    44018.905    44207.482   -2551.6559   -3831.7096    2844.3814    1976.8742    1803.1274    3780.0016   -161.47656            0   -161.47656    651.13826    707.54732    779.66518            0    2138.3508    -35.39253    11813.216    12984.006 
  129000     1021.434    42779.251    1.1703738    41536.613    45457.054    41344.085    1846.2065    895.38235    1159.1195    1980.4133    1979.0555    3959.4688   -161.46585            0   -161.46585    644.07809    719.62007    778.18102            0    2141.8792    -35.39253     12060.08    12984.006 
  130000    915.96903     38845.36    1.1703738    36670.606    39189.755     40675.72    193.88413   -1613.9525    2018.0071    1942.2304    1774.7143    3716.9447    -176.5005            0    -176.5005    595.56675     728.5287    794.63548            0    2118.7309    -35.39253     11072.64    12984.006 
  131000    1008.0694    44220.418    1.1703738    45019.287    41267.256     46374.71   -1534.1674   -3323.7345   -309.11131    1927.7065    1953.1612    3880.8677   -181.77609            0   -181.77609    622.27158    716.51068    770.70029            0    2109.4826    -35.39253    12254.376    12984.006 
  132000    974.73557    43100.688    1.1703738    41218.452    41166.574    46917.036    4255.3484   -935.12394    754.68418     2101.416     1888.576     3989.992   -139.09439            0   -139.09439    691.67768     774.1179    774.71483            0    2240.5104    -35.39253     12151.47    12984.006 
  133000    1052.0579    39717.348    1.1703738    42764.243    38354.381    38033.421   -6475.8995    3458.1184   -529.76224    2058.7294    2038.3901    4097.1196   -138.44404            0   -138.44404    726.45069    747.72697    722.99582            0    2197.1735    -35.39253    11617.933    12984.006 
  134000    973.55282    40342.564    1.1703738    41020.132    37499.925    42507.636    2067.9197    -3593.041    3967.1126    1942.8492    1886.2844    3829.1336   -206.41241            0   -206.41241    657.95135    743.22541    748.08487            0    2149.2616    -35.39253    11468.337    12984.006 
  135000    999.69236    42889.997    1.1703738    45572.681    39801.325    43295.986   -1053.8399   -2510.4216    3502.4494    2100.9843    1936.9305    4037.9147   -151.72463            0   -151.72463    713.10194    769.05254    770.55442            0    2252.7089    -35.39253    12159.496    12984.006 
  136000     966.1853    37893.384    1.1703738     37081.23    38756.643     37842.28   -2310.4125    3286.2736    3242.0396    1995.1808    1872.0097    3867.1904   -134.06275            0   -134.06275    657.01957    711.73827    760.48571            0    2129.2436    -35.39253    11042.621    12984.006 
  137000    1017.7983    37973.726    1.1703738    37567.383    43353.796    32999.999    -1664.108   -1528.6563     3609.796    1941.3267    1972.0112     3913.338   -169.08389            0   -169.08389    667.68071    688.94409    753.78583            0    2110.4106    -35.39253    11103.982    12984.006 
  138000    963.10827    42073.953    1.1703738    41686.649    43306.835    41228.375    149.72446    1052.1523    3927.2061    2062.6191    1866.0478    3928.6669   -116.84276            0   -116.84276    648.45397    731.05217    799.95572            0    2179.4619    -35.39253    11895.724    12984.006 
  139000    955.16697     41390.44    1.1703738    41956.661    39069.462    43145.197   -5480.0793    452.78535    923.40129       2085.4    1850.6613    3936.0613    -156.0685            0    -156.0685    671.73688    806.72078    763.01081            0    2241.4685    -35.39253    11773.689    12984.006 
  140000    995.99572    38918.657    1.1703738    35058.451    45273.768    36423.751     3298.869   -968.18911    623.81945    1984.9126    1929.7681    3914.6808   -164.62847            0   -164.62847    589.29032     744.8329    815.41788            0    2149.5411    -35.39253    11284.256    12984.006 
  141000    996.56405      42251.2    1.1703738    39776.195    45833.817    41143.589     5244.362   -492.94492    28.125192      1876.03    1930.8693    3806.8993   -141.10639            0   -141.10639    646.99841    682.18331    687.95468            0    2017.1364    -35.39253    11807.519    12984.006 
[...]
 1941000    370.23233   -869.35084    0.7976283    -909.4938    260.62273   -1959.1815    2083.2495    408.50253   -2416.7464    163.67794    717.33496     881.0129   -680.70391            0   -680.70391    243.79233    242.20519    358.38433            0    844.38185   -24.120571    639.46476    19051.656 
 1942000    384.20788   -375.95212    0.7976283   -4.5055355   -1056.2222   -67.128683    90.235833    110.44449   -687.84057     164.0482    744.41296    908.46117   -694.33913            0   -694.33913    229.13239    263.14637    366.10858            0    858.38734   -24.120571     804.0033    19051.656 
 1943000    381.15411    703.86818    0.7976283    441.24474    614.53132    1055.8285   -20.190603    2039.9043     1231.053    167.64471    738.49619     906.1409   -681.55139            0   -681.55139     255.8095    231.69945    361.68715            0     849.1961   -24.120571    1101.7099    19051.656 
 1944000    356.93993   -29.038898    0.7976283    767.59166   -3061.6162    2206.9079    653.23282    1167.1213    559.05851    231.84931    691.58058    923.42989     -676.237            0     -676.237      241.813    277.68122    388.59209            0    908.08631   -24.120571    915.36146    19051.656 
 1945000     377.4873    1938.4645    0.7976283    1931.5638   -500.41137     4384.241    416.94218    91.086578   -669.36613    175.56958    731.39167    906.96125   -678.52457            0   -678.52457    249.94331    255.16182    348.98902            0    854.09415   -24.120571    1445.5614    19051.656 
 1946000    382.93442    -1158.415    0.7976283   -1272.2538   -2113.5537   -89.437442     1608.216    853.67016   -1960.1556    176.08061    741.94561    918.02621     -662.479            0     -662.479    232.03031    248.59316    357.93613            0     838.5596   -24.120571    596.16193    19051.656 
 1947000    379.34627   -1292.7034    0.7976283   -1915.2777    312.74911   -2275.5815    951.91533    339.58345   -532.86842    182.50089    734.99346    917.49435   -678.85646            0   -678.85646    246.98335    248.96499    365.40902            0    861.35735   -24.120571     558.3182    19051.656 
 1948000    380.24278   -551.10548    0.7976283   -3192.6908    1191.3717    348.00265    2242.6058    954.80208    1094.9742    169.25218    736.73048    905.98266   -683.82382            0   -683.82382    252.09078    254.35338    346.63184            0      853.076   -24.120571    752.85863    19051.656 
 1949000    363.82848   -120.27789    0.7976283   -2791.1137    1420.5683    1009.7118   -250.86219     736.6135    1255.6568    190.91131    704.92733    895.83864    -686.0398            0    -686.0398     244.7926    266.64953      365.509            0    876.95112   -24.120571    862.41957    19051.656 
 1950000    376.94229   -1081.0735    0.7976283    -446.6524   -383.09267   -2413.4756   -447.10541   -1394.2517    690.43867    164.44759    730.33568    894.78326   -675.68302            0   -675.68302    231.97526    267.70731    340.44804            0    840.13061   -24.120571    594.40821    19051.656 
 1951000    367.96635   -608.43963    0.7976283   -801.04642   -222.79079   -801.48167     685.3213    748.81895    1125.8094    183.38471    712.94457    896.32928   -674.32891            0   -674.32891     241.8607    262.38885    353.46406            0    857.71362   -24.120571    727.27502    19051.656 
 1952000    372.40925   -742.05526    0.7976283   -212.94897   -1224.5518   -788.66496    684.53431    686.56549    261.85191    168.78648    721.55281    890.33929   -680.57039            0   -680.57039    220.19137    266.73452    362.43098            0    849.35687   -24.120571    684.16009    19051.656 
 1953000    376.49841    2610.5704    0.7976283    968.17064    1708.4796    5155.0609   -2740.1138    -959.3016    -859.5774    150.22375    729.47567    879.69941   -677.83448            0   -677.83448    234.19361    245.14739    348.71723            0    828.05823   -24.120571    1605.0434    19051.656 
 1954000    379.62607    283.33122    0.7976283    902.35459    -631.4371    579.07617    826.17313   -138.10828   -884.30941    180.13599    735.53558    915.67157   -677.44053            0   -677.44053    246.03609    264.73731    346.80313            0    857.57652   -24.120571    994.39483    19051.656 
 1955000    378.98748    437.72715    0.7976283    711.99407    257.86655    343.32082    361.59516    1539.4738    23.968306     150.5342     734.2983     884.8325   -689.93598            0   -689.93598    255.28106    235.49616    349.69297            0    840.47018   -24.120571    1006.4545    19051.656 
 1956000    362.51141   -1623.6815    0.7976283   -2738.2059   -2190.1724    57.333777     1736.899   -1890.9637   -1424.9111    153.89761    702.37547    856.27308   -693.09102            0   -693.09102    229.70474     261.0897    356.19418            0    846.98863   -24.120571    405.13502    19051.656 
 1957000    390.91746     346.2872    0.7976283   -1696.4544    1097.8551     1637.461   -965.41626    1298.5685   -1084.9418    200.00143    757.41295    957.41438   -685.66538            0   -685.66538    255.38872    256.07492    374.20316            0    885.66681   -24.120571    1053.6299    19051.656 
 1958000    379.91792   -417.35161    0.7976283   -450.03343   -1101.3506    299.32922    1074.7794    783.14546   -361.82747    185.90936    736.10106    922.01042   -680.30237            0   -680.30237    247.81697    263.33106     355.0637            0    866.21173   -24.120571    806.04975    19051.656 
 1959000    390.22205    159.33551    0.7976283   -528.29068   -386.81192    1393.1091   -207.79346    -279.0976    -126.9852    125.37338    756.06558    881.43897   -682.67399            0   -682.67399     215.8174    259.05363    333.17635            0    808.04737   -24.120571    925.71016    19051.656 
 1960000    383.64564    691.29707    0.7976283    605.15508   -903.40359    2372.1397    1173.1873      1541.91   -35.047096    212.54961     743.3236    955.87321   -691.11361            0   -691.11361    247.34018    278.79612    377.52692            0    903.66322   -24.120571    1147.9493    19051.656 
 1961000      384.046   -1338.6335    0.7976283     195.4478   -1750.8505   -2460.4978   -311.14401   -104.91973   -837.89456    204.70789    744.09932    948.80722   -668.83586            0   -668.83586    268.56688    243.22264    361.75423            0    873.54376   -24.120571    576.86942    19051.656 
 1962000    378.70059    1708.6101    0.7976283    2746.7444    1197.8462    1181.2398    1002.1464   -785.92282     971.2529    154.13646    733.74243    887.87889   -680.61063            0   -680.61063    237.92978    243.83426    352.98306            0    834.74709   -24.120571    1362.6143    19051.656 
 1963000    384.29959   -1002.4494    0.7976283   -116.90281   -115.96602   -2774.4795   -943.39409   -109.25907    1026.7981    161.04385    744.59065     905.6345   -688.72881            0   -688.72881    264.88493    260.85848    324.02925            0    849.77266   -24.120571    627.10506    19051.656 
 1964000    386.39092     431.7746    0.7976283     1342.315   -573.50725    526.51609   -2014.7632    53.760554    -490.3576    147.82255    748.64265    896.46521   -686.15822            0   -686.15822     235.3915    255.78498    342.80429            0    833.98077   -24.120571    1016.4333    19051.656 
 1965000    377.77447    774.79105    0.7976283    365.16054    1860.5244    98.688217   -2290.4629    1196.6951   -49.378489    159.92923    731.94806    891.87729   -697.43172            0   -697.43172    220.17971    258.29621    378.88503            0    857.36095   -24.120571    1107.1521    19051.656 
 1966000    360.52302     2671.344    0.7976283    3640.6483    879.26979    3494.1139   -360.97877   -799.89816    754.49546    166.22235    698.52291    864.74526   -684.33095            0   -684.33095    236.84684    271.97259    341.73387            0     850.5533   -24.120571    1606.9751    19051.656 
 1967000    358.32845    169.06524    0.7976283    -1118.809    2404.3552    -778.3505    1124.8366    52.497799    618.99876     149.7159    694.27087    843.98678   -685.20979            0   -685.20979     232.3593    252.91624    349.65016            0     834.9257   -24.120571    890.96136    19051.656 
 1968000    397.41009    318.04098    0.7976283    1137.4577   -1036.2354    852.90059    1734.2553   -209.72507   -1144.0345    182.00465     769.9926    951.99724   -684.33824            0   -684.33824    242.60952    269.15939    354.57398            0    866.34288   -24.120571    1040.3646    19051.656 
 1969000    364.59985    649.81498    0.7976283    -336.6409    1706.4488    579.63708    874.92274    31.218555    -74.76726    165.89133    706.42189    872.31321   -689.31736            0   -689.31736    238.97306    264.16223     352.0734            0    855.20868   -24.120571    1052.8636    19051.656 
 1970000    380.94565   -142.51171    0.7976283    1516.1445   -969.74146   -973.93818    1399.6873    514.11548    382.23915    160.11715    738.09231    898.20946   -687.82688            0   -687.82688    222.06595    272.80546    353.07262            0    847.94402   -24.120571    858.61274    19051.656 
 1971000    373.97662    2313.7389    0.7976283    2921.7079    2707.1959     1312.313    431.11396    1764.0616    290.60721    175.78336    724.58962    900.37298    -673.4209            0    -673.4209    250.34205    258.88368    339.97853            0    849.20426   -24.120571    1543.2427    19051.656 
 1972000    372.12797   -1090.0295    0.7976283    547.08141   -1249.9281   -2567.2418    252.40085   -1105.7199   -796.36929    159.99095    721.00781    880.99876   -671.33776            0   -671.33776    232.03582    258.69276    340.60013            0    831.32871   -24.120571    578.13531    19051.656 
 1973000    359.80435   -789.38518    0.7976283   -2243.9802    -1353.454    1229.2787    1708.2886     1351.566    673.47399    186.97699    697.13048    884.10746   -684.97352            0   -684.97352     238.3985    271.62487    361.92713            0     871.9505   -24.120571    664.77769    19051.656 
 1974000     363.6603   -459.70694    0.7976283    246.51919   -2068.8729    443.23294    597.56322    1456.0586     123.0025    155.96451    704.60149      860.566   -697.64494            0   -697.64494    250.89031    257.74057    344.97858            0    853.60946   -24.120571    732.83695    19051.656 
 1975000    363.96769   -68.278276    0.7976283    918.23159   -984.76229   -138.30413    414.63179   -21.625867    57.023058    156.85306    705.19706    862.05012    -681.9884            0    -681.9884    224.32072    256.15135    358.36939            0    838.84146   -24.120571    843.07907    19051.656 
 1976000    380.49989    2654.6752    0.7976283    4013.3902    2365.7272    1584.9081    668.49228    76.401293   -1329.5126     199.2098    737.22863    936.43844   -672.83735            0   -672.83735    237.68551    250.35259    384.00905            0    872.04715   -24.120571    1674.0369    19051.656 
 1977000    374.19113   -871.36316    0.7976283   -1236.1217   -1296.8577   -81.110074    512.12236   -1560.5646   -913.09231    201.38401    725.00523    926.38925   -675.17008            0   -675.17008    248.08268    248.29221     380.1792            0    876.55409   -24.120571    684.28199    19051.656 
 1978000    373.20696    950.16036    0.7976283   -178.27003    1583.5819    1445.1692    2594.7508    327.75954   -1421.4894    227.82802    723.09838     950.9264   -670.95201            0   -670.95201     235.3602    273.15404    390.26578            0    898.78003   -24.120571    1214.9274    19051.656 
 1979000    386.66857    297.70682    0.7976283    291.12228    285.59792    316.40026   -983.76457    1861.6316    -585.0597    203.96463    749.18061    953.14524   -669.39909            0   -669.39909    248.05934    258.68479    366.61959            0    873.36372   -24.120571    1035.8627    19051.656 
 1980000    366.03286     882.9807    0.7976283   -253.85629     3181.681    -278.8826   -87.441714    248.17572     356.2981    178.17594    709.19838    887.37432   -694.36567            0   -694.36567    251.75828    251.16964    369.61369            0    872.54161   -24.120571    1132.7095    19051.656 
 1981000     376.6682   -1038.6586    0.7976283   -647.21135   -1876.7634   -592.00097    1750.0022   -130.33317    804.73877    172.21169    729.80463    902.01632   -686.69153            0   -686.69153    240.70557    259.53041    358.66724            0    858.90322   -24.120571    613.42621    19051.656 
 1982000     371.3346   -858.56503    0.7976283   -770.56185   -2590.2047    785.07146   -1690.3979     787.5407   -313.85866    155.85211    719.47064    875.32275   -684.51271            0   -684.51271    235.08302    231.57664    373.70516            0    840.36482   -24.120571    636.77144    19051.656 
 1983000     378.4668    -412.7644    0.7976283   -1945.7688   -152.59436    860.06998    18.095985    93.460716   -513.01967    197.07757    733.28946    930.36703   -667.19177            0   -667.19177    249.74869    260.49071    354.02994            0    864.26934   -24.120571    815.68091    19051.656 
 1984000    374.06807    1354.4276    0.7976283    1504.4851    2032.9867    525.81115    289.19712   -431.24301   -1719.6014    206.81888     724.7668    931.58568   -672.24754            0   -672.24754    246.96876    276.79743    355.30022            0    879.06642   -24.120571    1307.9119    19051.656 
 1985000    363.16249    405.28767    0.7976283   -1842.2053    1198.6344     1859.434    638.62288   -1241.7537   -133.30742     181.8327    703.63697    885.46967   -672.68889            0   -672.68889    228.10367    257.83926    368.57866            0    854.52159   -24.120571    998.07838    19051.656 
 1986000     377.2799   -365.52359    0.7976283    15.992176    695.83477   -1808.3977   -776.84766   -616.36994    63.011195    165.12309    730.98983    896.11291    -676.6383            0    -676.6383    248.00196    239.78192    353.97752            0    841.76139   -24.120571     794.5526    19051.656 
 1987000    373.88313   -2201.6256    0.7976283    -643.2993   -3857.8888   -2103.6887    937.80698   -913.74482    1893.4843    192.38406    724.40849    916.79255   -670.81759            0   -670.81759    263.63398    249.12437    350.44331            0    863.20166   -24.120571    305.07339    19051.656 
 1988000    384.19274    62.471713    0.7976283    1361.3423   -977.19468   -196.73246   -825.76643   -44.145011    -918.4563    148.31756    744.38362    892.70118   -689.15948            0   -689.15948    232.96591    250.30464    354.20649            0    837.47704   -24.120571    910.05887    19051.656 
 1989000    372.34594   -1215.7852    0.7976283   -3207.8332   -963.74767    524.22529   -558.61386     1301.236    1112.2378    187.14116    721.43015    908.57131   -671.11353            0   -671.11353    252.33396    251.15136    354.76937            0    858.25469   -24.120571    570.76678    19051.656 
 1990000    360.77565   -1235.5263    0.7976283   -1873.3573    328.81369   -2162.0353    800.45862    224.09966    881.27644    154.77029     699.0124     853.7827   -672.29251            0   -672.29251    237.97478     251.3019    337.78613            0    827.06281   -24.120571    510.49313    19051.656 
 1991000     361.6126    225.61283    0.7976283     2464.953   -2131.3168    343.20236   -976.05881     1713.445   -206.10296    202.53763      700.634    903.17163   -677.10243            0   -677.10243    246.92745    262.29238    370.42023            0    879.64006   -24.120571     965.8579    19051.656 
 1992000    390.54763    200.49347    0.7976283   -994.17985   -1012.5506    2608.2109    420.49887    2009.6362    765.42446    179.64635    756.69639    936.34274     -685.382            0     -685.382    238.31027    258.56697     368.1511            0    865.02835   -24.120571    992.04962    19051.656 
 1993000    385.96305    21.987056    0.7976283   -695.64163    2138.1238    -1376.521     1950.048    437.52176   -165.54169    196.50781    747.81364    944.32145   -681.68542            0   -681.68542      255.456    259.81541    362.92182            0    878.19322   -24.120571    950.43053    19051.656 
 1994000    390.98748    521.13402    0.7976283    2775.5502   -151.67906   -1060.4691    91.152644   -231.41209   -829.05854    169.65742    757.54862    927.20604   -687.71885            0   -687.71885    238.26346    250.16317    368.94965            0    857.37627   -24.120571    1072.0025    19051.656 
 1995000    351.75156   -2601.5843    0.7976283   -983.87677     -2357.59   -4463.2861    299.81775    1006.4291   -936.16533    161.04502    681.52798      842.573   -687.64086            0   -687.64086    239.85408    230.35819    378.47361            0    848.68588   -24.120571    119.72577    19051.656 
 1996000    373.54158   -155.91971    0.7976283    800.33496   -701.27928   -566.81481    1440.1538   -295.00089    426.36623    192.11838    723.74671    915.86509   -675.36281            0   -675.36281    240.32545    247.78945    379.36629            0    867.48118   -24.120571    872.54298    19051.656 
 1997000    374.81384   -92.476397    0.7976283    11.001511   -331.32305    42.892349    865.78634    691.22403   -775.78363     195.4731    726.21175    921.68485   -689.26594            0   -689.26594    242.62741    288.71233    353.39931            0    884.73904   -24.120571    895.99039    19051.656 
 1998000    364.55133    560.82041    0.7976283    1552.5177    1346.9702   -1217.0266   -1604.1774     1236.666    209.66616    190.95164    706.32787    897.27951   -685.57482            0   -685.57482    227.32464    291.27899    357.92283            0    876.52646   -24.120571    1053.1028    19051.656 
 1999000       366.43   -884.01117    0.7976283   -1868.0938   -631.22548   -152.71424   -646.73943   -369.80418    189.76008    172.78439    709.96786    882.75225   -685.64534            0   -685.64534    216.31578    253.58627    388.52769            0    858.42973   -24.120571    637.13075    19051.656 
 2000000    359.96851    730.40941    0.7976283    728.70447    692.43124    770.09253   -115.72941    1000.8461    931.29823    192.12463    697.44854    889.57317   -682.74147            0   -682.74147    230.57322    288.63504    355.65783            0     874.8661   -24.120571    1092.5166    19051.656 
Loop time of 34.8566 on 112 procs for 250000 steps with 651 atoms

Performance: 619.682 ns/day, 0.039 hours/ns, 7172.243 timesteps/s
99.8% CPU use with 112 MPI tasks x no OpenMP threads

MPI task timing breakdown:
Section |  min time  |  avg time  |  max time  |%varavg| %total
---------------------------------------------------------------
Pair    | 2.5237     | 4.9387     | 9.0504     |  56.2 | 14.17
Bond    | 0.12273    | 0.27179    | 0.61318    |  19.7 |  0.78
Neigh   | 0.41182    | 0.42752    | 0.4354     |   1.1 |  1.23
Comm    | 22.026     | 26.171     | 28.59      |  25.9 | 75.08
Output  | 0.03252    | 0.032759   | 0.032877   |   0.0 |  0.09
Modify  | 0.16749    | 0.2065     | 0.27778    |   4.6 |  0.59
Other   |            | 2.808      |            |       |  8.06

Nlocal:        5.81250 ave          13 max           1 min
Histogram: 6 10 16 20 18 30 6 2 2 2
Nghost:        1825.25 ave        1885 max        1781 min
Histogram: 4 7 19 23 22 17 9 7 3 1
Neighs:        1682.68 ave        4328 max         362 min
Histogram: 10 14 22 31 18 10 4 2 0 1

Total # of neighbors = 188460
Ave neighs/atom = 289.49309
Ave special neighs/atom = 6.2980031
Neighbor list builds = 2852
Dangerous builds = 0
System init for write_restart ...
Total wall time: 0:05:44
